 NUFEB Simulation

     97 atoms 
     1 atom types 
     4 nutrients 

  0.0e-4   1.00e-04  xlo xhi 
  0.0e-4   1.00e-04  ylo yhi 
  0.0e-4   1.00e-05  zlo zhi 

 Atoms 

     1 1 1.44e-06  370 9.32e-05 7.84e-05 6.01e-06 1.44e-06 
     2 1 1.75e-06  370 7.56e-05 8.84e-05 6.45e-06 1.75e-06 
     3 1 1.55e-06  370 4.34e-05 6.20e-05 6.29e-06 1.55e-06 
     4 1 1.61e-06  370 7.42e-05 7.24e-05 5.15e-06 1.61e-06 
     5 1 1.88e-06  370 4.66e-05 1.13e-05 3.01e-06 1.88e-06 
     6 1 1.74e-06  370 7.29e-05 1.78e-05 2.37e-06 1.74e-06 
     7 1 1.41e-06  370 8.86e-05 6.04e-05 6.30e-06 1.41e-06 
     8 1 1.55e-06  370 9.12e-05 4.66e-05 1.66e-06 1.55e-06 
     9 1 1.76e-06  370 5.23e-06 5.49e-05 3.95e-06 1.76e-06 
     10 1 1.51e-06  370 3.41e-05 4.04e-06 8.30e-06 1.51e-06 
     11 1 1.67e-06  370 5.14e-05 1.27e-05 4.64e-06 1.67e-06 
     12 1 1.75e-06  370 7.76e-05 7.83e-05 6.60e-06 1.75e-06 
     13 1 1.45e-06  370 6.30e-05 6.36e-05 8.47e-06 1.45e-06 
     14 1 1.73e-06  370 6.77e-05 5.91e-05 6.22e-06 1.73e-06 
     15 1 1.79e-06  370 4.70e-05 5.61e-06 5.37e-06 1.79e-06 
     16 1 1.40e-06  370 6.43e-05 4.80e-05 7.39e-06 1.40e-06 
     17 1 1.73e-06  370 5.77e-05 6.67e-05 2.42e-06 1.73e-06 
     18 1 1.74e-06  370 7.82e-05 9.82e-05 4.12e-06 1.74e-06 
     19 1 1.54e-06  370 7.65e-05 1.28e-05 5.34e-06 1.54e-06 
     20 1 1.70e-06  370 9.65e-05 4.17e-05 8.14e-06 1.70e-06 
     21 1 1.67e-06  370 8.88e-05 6.48e-05 7.48e-06 1.67e-06 
     22 1 1.51e-06  370 1.88e-06 1.38e-05 2.09e-06 1.51e-06 
     23 1 1.38e-06  370 8.59e-05 8.41e-05 1.57e-06 1.38e-06 
     24 1 1.55e-06  370 2.81e-06 5.26e-05 4.77e-06 1.55e-06 
     25 1 1.72e-06  370 3.64e-05 7.93e-05 1.91e-06 1.72e-06 
     26 1 1.60e-06  370 7.11e-05 9.58e-05 5.66e-06 1.60e-06 
     27 1 1.68e-06  370 9.06e-05 6.53e-05 6.92e-06 1.68e-06 
     28 1 1.88e-06  370 5.44e-05 6.77e-05 5.96e-06 1.88e-06 
     29 1 1.50e-06  370 4.19e-05 1.89e-05 8.36e-06 1.50e-06 
     30 1 1.68e-06  370 9.49e-05 6.19e-05 7.39e-06 1.68e-06 
     31 1 1.92e-06  370 6.99e-05 1.34e-05 4.07e-06 1.92e-06 
     32 1 1.40e-06  370 5.65e-05 4.69e-06 6.27e-06 1.40e-06 
     33 1 1.53e-06  370 6.75e-05 7.00e-05 3.58e-06 1.53e-06 
     34 1 1.81e-06  370 7.37e-05 5.90e-05 3.99e-06 1.81e-06 
     35 1 1.68e-06  370 8.26e-05 4.02e-05 3.90e-06 1.68e-06 
     36 1 1.81e-06  370 5.63e-05 9.71e-05 7.02e-06 1.81e-06 
     37 1 1.89e-06  370 6.43e-05 4.90e-05 6.15e-06 1.89e-06 
     38 1 1.61e-06  370 7.45e-05 5.49e-05 6.26e-06 1.61e-06 
     39 1 1.86e-06  370 3.56e-05 4.44e-05 7.12e-06 1.86e-06 
     40 1 1.85e-06  370 5.96e-05 2.68e-05 5.47e-06 1.85e-06 
     41 1 1.68e-06  370 8.59e-05 4.19e-05 6.28e-06 1.68e-06 
     42 1 1.38e-06  370 2.46e-05 1.67e-05 7.55e-06 1.38e-06 
     43 1 1.43e-06  370 1.32e-05 5.93e-05 3.46e-06 1.43e-06 
     44 1 1.79e-06  370 3.31e-05 1.65e-05 4.43e-06 1.79e-06 
     45 1 1.83e-06  370 1.06e-05 4.51e-05 4.36e-06 1.83e-06 
     46 1 1.55e-06  370 8.33e-05 7.69e-05 7.68e-06 1.55e-06 
     47 1 1.91e-06  370 3.79e-05 6.20e-05 4.97e-06 1.91e-06 
     48 1 1.53e-06  370 4.94e-06 4.13e-05 8.27e-06 1.53e-06 
     49 1 1.38e-06  370 2.83e-05 9.52e-05 7.35e-06 1.38e-06 
     50 1 1.50e-06  370 7.59e-05 8.20e-05 4.17e-06 1.50e-06 
     51 1 1.90e-06  370 4.77e-05 6.88e-05 2.81e-06 1.90e-06 
     52 1 1.54e-06  370 5.05e-05 5.39e-05 7.38e-06 1.54e-06 
     53 1 1.37e-06  370 6.63e-05 3.01e-05 4.20e-06 1.37e-06 
     54 1 1.39e-06  370 3.58e-05 5.42e-05 1.55e-06 1.39e-06 
     55 1 1.86e-06  370 3.16e-06 6.55e-05 5.85e-06 1.86e-06 
     56 1 1.81e-06  370 7.50e-05 1.30e-05 2.80e-06 1.81e-06 
     57 1 1.51e-06  370 4.13e-05 1.94e-05 3.16e-06 1.51e-06 
     58 1 1.58e-06  370 4.99e-05 1.45e-05 3.52e-06 1.58e-06 
     59 1 1.78e-06  370 3.77e-06 1.80e-05 5.04e-06 1.78e-06 
     60 1 1.68e-06  370 8.31e-05 4.12e-05 3.36e-06 1.68e-06 
     61 1 1.44e-06  370 6.70e-05 4.75e-05 7.72e-06 1.44e-06 
     62 1 1.43e-06  370 8.61e-05 3.06e-05 4.55e-06 1.43e-06 
     63 1 1.61e-06  370 5.52e-05 3.74e-05 1.63e-06 1.61e-06 
     64 1 1.68e-06  370 9.55e-05 2.73e-05 4.95e-06 1.68e-06 
     65 1 1.65e-06  370 5.62e-05 7.68e-05 7.13e-06 1.65e-06 
     66 1 1.59e-06  370 8.90e-06 2.42e-05 6.83e-06 1.59e-06 
     67 1 1.40e-06  370 7.11e-05 1.75e-05 4.63e-06 1.40e-06 
     68 1 1.71e-06  370 1.79e-05 9.21e-05 5.54e-06 1.71e-06 
     69 1 1.38e-06  370 5.75e-05 2.91e-05 8.51e-06 1.38e-06 
     70 1 1.47e-06  370 7.25e-05 3.32e-05 6.58e-06 1.47e-06 
     71 1 1.50e-06  370 2.34e-05 8.12e-05 5.84e-06 1.50e-06 
     72 1 1.85e-06  370 5.23e-05 3.96e-05 6.11e-06 1.85e-06 
     73 1 1.50e-06  370 6.29e-05 1.99e-05 8.24e-06 1.50e-06 
     74 1 1.69e-06  370 4.13e-05 1.89e-05 2.72e-06 1.69e-06 
     75 1 1.65e-06  370 1.08e-05 6.67e-05 3.34e-06 1.65e-06 
     76 1 1.77e-06  370 6.89e-05 4.68e-05 6.74e-06 1.77e-06 
     77 1 1.61e-06  370 5.92e-05 2.16e-05 5.38e-06 1.61e-06 
     78 1 1.67e-06  370 1.29e-05 4.70e-05 2.19e-06 1.67e-06 
     79 1 1.47e-06  370 2.46e-05 6.81e-06 3.84e-06 1.47e-06 
     80 1 1.92e-06  370 4.99e-05 6.90e-05 2.73e-06 1.92e-06 
     81 1 1.84e-06  370 8.07e-05 8.04e-05 6.25e-06 1.84e-06 
     82 1 1.93e-06  370 1.34e-05 8.70e-05 7.04e-06 1.93e-06 
     83 1 1.88e-06  370 7.14e-05 2.78e-05 6.25e-06 1.88e-06 
     84 1 1.72e-06  370 5.30e-05 4.63e-05 5.07e-06 1.72e-06 
     85 1 1.93e-06  370 4.19e-05 2.14e-05 2.89e-06 1.93e-06 
     86 1 1.38e-06  370 9.73e-05 1.87e-05 6.32e-06 1.38e-06 
     87 1 1.44e-06  370 6.31e-06 5.18e-05 3.26e-06 1.44e-06 
     88 1 1.41e-06  370 5.45e-05 8.61e-05 4.00e-06 1.41e-06 
     89 1 1.86e-06  370 5.12e-05 8.86e-05 3.72e-06 1.86e-06 
     90 1 1.49e-06  370 1.68e-06 5.93e-05 2.25e-06 1.49e-06 
     91 1 1.90e-06  370 8.73e-05 6.31e-05 7.27e-06 1.90e-06 
     92 1 1.37e-06  370 8.35e-05 7.09e-05 4.94e-06 1.37e-06 
     93 1 1.74e-06  370 8.01e-05 8.46e-05 2.05e-06 1.74e-06 
     94 1 1.68e-06  370 8.31e-05 1.05e-05 6.33e-06 1.68e-06 
     95 1 1.45e-06  370 7.04e-05 4.82e-05 8.33e-06 1.45e-06 
     96 1 1.87e-06  370 3.87e-05 3.04e-05 3.07e-06 1.87e-06 
     97 1 1.39e-06  370 3.49e-05 2.34e-05 7.41e-06 1.39e-06 

 Nutrients 

     1 sub g nn nn nn 1.00e-01 1.00e-01 
     2 o2 l nn nn nn 9.00e-03 9.00e-03 
     3 suc l nn nn nn 3.42e-20 3.42e-20 
     4 co2 l nn nn nn 4.40e+01 4.40e+01 

 Type Name 

     1 cyano  

 Diffusion Coeffs 

     sub 0 
     o2 2.3e-09 
     suc 5.2e-10 
     co2 1.9e-09 

 Growth Rate 

     cyano 1.67e-05 

 Ks 

     cyano 0.00035 0.0002 0.01 0.000138 

 Yield 

     cyano 0.55 

 Maintenance 

     cyano 0 

 Decay 

     cyano 0 



