LAMMPS (20 Nov 2019)
# NUFEB simulation

units si
atom_style	bio
atom_modify	map array sort 1000 1e-6
boundary	pp pp ff
newton		off
processors 2 2 1

comm_modify	vel yes
read_data_bio atom.in
  orthogonal box = (0 0 0) to (0.00015 0.0001 0.00015)
  2 by 2 by 1 MPI processor grid
  reading atoms ...
  0 atoms
  5 nutrients

##############Define initial particle distribution##############

lattice sc 5e-6 origin 0 0 0
Lattice spacing in x,y,z = 5e-06 5e-06 5e-06
region reg block 0 30 0 20 0 1
region reg3 block 0 30 0 20 28 30

create_atoms 1 random 150 63543 reg
Created 150 atoms
  create_atoms CPU = 4.5185e-05 secs
create_atoms 2 random 150 95321 reg
Created 150 atoms
  create_atoms CPU = 3.4345e-05 secs
create_atoms 3 random 250 33622 reg
Created 250 atoms
  create_atoms CPU = 3.5629e-05 secs
create_atoms 4 random 250 33242 reg
Created 250 atoms
  create_atoms CPU = 3.5008e-05 secs

set type 1 density 32
  150 settings made for density
set type 1 diameter 4.5e-6
  150 settings made for diameter
set type 1 mass 1.52e-15
  150 settings made for mass

set type 2 density 32
  150 settings made for density
set type 2 diameter 4.5e-6
  150 settings made for diameter
set type 2 mass 1.52e-15
  150 settings made for mass

set type 3 density 32
  250 settings made for density
set type 3 diameter 4.5e-6
  250 settings made for diameter
set type 3 mass 1.52e-15
  250 settings made for mass

set type 4 density 32
  250 settings made for density
set type 4 diameter 4.5e-6
  250 settings made for diameter
set type 4 mass 1.52e-15
  250 settings made for mass

set type 5 density 32
  0 settings made for density
set type 5 diameter 4.5e-6
  0 settings made for diameter
set type 5 mass 1.52e-15
  0 settings made for mass

group HET type 1
150 atoms in group HET
group AOB type 2
150 atoms in group AOB
group NOB type 3
250 atoms in group NOB
group ANA type 4
250 atoms in group ANA
group DEAD type 5
0 atoms in group DEAD

neighbor        2e-6 bin
neigh_modify    delay 0 one 5000

##############Define DEM Variables&Commands##############

pair_style  gran/hooke/history 1e-3 NULL 1e-4 NULL 0 1
pair_coeff  * *

timestep 1e-3

fix 1 all nve/limit 1e-7
fix fv all viscous 1e-7

fix zw all wall/gran hooke/history 1e-3 NULL 1e-4 NULL 0 1 zplane 0 6e-04

variable kanc equal 5e8

fix zwa all walladh v_kanc zplane  0.0 6e-04

##############Define IBm Variables##############

#variables used in fix eps_extract
variable EPSdens equal 30

#variables used in fix division
variable divDia equal 5e-6

#variables used in fix kinetics
variable diffT equal 1e-4
variable tol equal 1e-6
variable layer equal 5e-5

#variables used in fix death
variable deadDia equal 2e-6

##############Define IBm Commands##############

fix k1 all kinetics 1 15 10 15 v_diffT v_layer niter 3000
fix kgm all kinetics/growth/monod epsdens 30 etahet 0.8
fix g1 all kinetics/diffusion v_tol pp pp nd kg bulk 2.31e-7 1.25e-3 0.1 dcflag 2
fix d1 all divide 1 v_EPSdens v_divDia 52352 demflag 0
fix d2 all death 1 v_deadDia demflag 0

##############Define IBm Computes##############

compute myNtypes all ntypes
compute myMass all biomass

##############Simulation Output##############

thermo_style    custom step cpu atoms c_myNtypes[2] c_myNtypes[3] c_myNtypes[4]  c_myNtypes[5] c_myNtypes[6]
dump du0 all bio 8008 biomass ntypes bulk
dump du2 all grid 24024 grid_%_*.vti con
dump du3 all vtk 24024 snapshot_*.vtu id type diameter x y z
thermo 1001
thermo_modify   lost ignore

##############Define Bio-loop and DEM-subloop##############

run 800 pre no post no every 1 "fix_modify k1 demflag 1" "fix_modify d2 demflag 1" "fix_modify d1 demflag 1" "delete_atoms region reg3" "timestep 1e-3" "run 1000 pre no post no" "timestep 10800" "fix_modify k1 demflag 0" "fix_modify d2 demflag 0" "fix_modify d1 demflag 0"
Neighbor list info ...
  update every 1 steps, delay 0 steps, check yes
  max neighbors/atom: 5000, page size: 100000
  master list distance cutoff = 6.5e-06
  ghost atom cutoff = 6.5e-06
  binsize = 3.25e-06, bins = 47 31 47
  1 neighbor lists, perpetual/occasional/extra = 1 0 0
  (1) pair gran/hooke/history, perpetual
      attributes: half, newton off, size, history
      pair build: half/size/bin/newtoff
      stencil: half/bin/3d/newtoff
      bin: standard
Per MPI rank memory allocation (min/avg/max) = 10.97 | 10.97 | 10.98 Mbytes
Step CPU Atoms c_myNtypes[2] c_myNtypes[3] c_myNtypes[4] c_myNtypes[5] c_myNtypes[6] 
       0            0      800          150          150          250          250            0 
number of iterations: 3000 
       1   0.18020397      799          149          150          250          250            0 
Loop time of 0.180217 on 4 procs for 1 steps with 799 atoms

fix_modify k1 demflag 1
fix_modify d2 demflag 1
fix_modify d1 demflag 1
delete_atoms region reg3
Deleted 0 atoms, new total = 799
timestep 1e-3
run 1000 pre no post no
Step CPU Atoms c_myNtypes[2] c_myNtypes[3] c_myNtypes[4] c_myNtypes[5] c_myNtypes[6] 
       1            0      799          149          150          250          250            0 
    1001   0.03512795      797          149          149          249          250            0 
Loop time of 0.0351551 on 4 procs for 1000 steps with 797 atoms

timestep 10800
fix_modify k1 demflag 0
fix_modify d2 demflag 0
fix_modify d1 demflag 0
Step CPU Atoms c_myNtypes[2] c_myNtypes[3] c_myNtypes[4] c_myNtypes[5] c_myNtypes[6] 
    1001            0      797          149          149          249          250            0 
number of iterations: 3000 
    1002   0.15138147      797          149          149          249          250            0 
Loop time of 0.151397 on 4 procs for 1 steps with 797 atoms

fix_modify k1 demflag 1
fix_modify d2 demflag 1
fix_modify d1 demflag 1
delete_atoms region reg3
Deleted 0 atoms, new total = 797
timestep 1e-3
run 1000 pre no post no
Step CPU Atoms c_myNtypes[2] c_myNtypes[3] c_myNtypes[4] c_myNtypes[5] c_myNtypes[6] 
    1002            0      797          149          149          249          250            0 
    2002  0.031885866      797          149          149          249          250            0 
Loop time of 0.0319188 on 4 procs for 1000 steps with 797 atoms

timestep 10800
fix_modify k1 demflag 0
fix_modify d2 demflag 0
fix_modify d1 demflag 0
Step CPU Atoms c_myNtypes[2] c_myNtypes[3] c_myNtypes[4] c_myNtypes[5] c_myNtypes[6] 
    2002            0      797          149          149          249          250            0 
number of iterations: 3000 
    2003   0.17215191      797          149          149          249          250            0 
Loop time of 0.172166 on 4 procs for 1 steps with 797 atoms

fix_modify k1 demflag 1
fix_modify d2 demflag 1
fix_modify d1 demflag 1
delete_atoms region reg3
Deleted 0 atoms, new total = 797
timestep 1e-3
run 1000 pre no post no
Step CPU Atoms c_myNtypes[2] c_myNtypes[3] c_myNtypes[4] c_myNtypes[5] c_myNtypes[6] 
    2003            0      797          149          149          249          250            0 
    3003   0.03168392      797          149          149          249          250            0 
Loop time of 0.031726 on 4 procs for 1000 steps with 797 atoms

timestep 10800
fix_modify k1 demflag 0
fix_modify d2 demflag 0
fix_modify d1 demflag 0
Step CPU Atoms c_myNtypes[2] c_myNtypes[3] c_myNtypes[4] c_myNtypes[5] c_myNtypes[6] 
    3003            0      797          149          149          249          250            0 
number of iterations: 3000 
    3004   0.15737913      797          149          149          249          250            0 
Loop time of 0.157394 on 4 procs for 1 steps with 797 atoms

fix_modify k1 demflag 1
fix_modify d2 demflag 1
fix_modify d1 demflag 1
delete_atoms region reg3
Deleted 0 atoms, new total = 797
timestep 1e-3
run 1000 pre no post no
Step CPU Atoms c_myNtypes[2] c_myNtypes[3] c_myNtypes[4] c_myNtypes[5] c_myNtypes[6] 
    3004            0      797          149          149          249          250            0 
    4004  0.031432133      797          149          149          249          250            0 
Loop time of 0.0314538 on 4 procs for 1000 steps with 797 atoms

timestep 10800
fix_modify k1 demflag 0
fix_modify d2 demflag 0
fix_modify d1 demflag 0
Step CPU Atoms c_myNtypes[2] c_myNtypes[3] c_myNtypes[4] c_myNtypes[5] c_myNtypes[6] 
    4004            0      797          149          149          249          250            0 
number of iterations: 3000 
    4005   0.15786347      797          149          149          249          250            0 
Loop time of 0.157887 on 4 procs for 1 steps with 797 atoms

fix_modify k1 demflag 1
fix_modify d2 demflag 1
fix_modify d1 demflag 1
delete_atoms region reg3
Deleted 0 atoms, new total = 797
timestep 1e-3
run 1000 pre no post no
Step CPU Atoms c_myNtypes[2] c_myNtypes[3] c_myNtypes[4] c_myNtypes[5] c_myNtypes[6] 
    4005            0      797          149          149          249          250            0 
    5005   0.03401532      797          149          149          249          250            0 
Loop time of 0.0340611 on 4 procs for 1000 steps with 797 atoms

timestep 10800
fix_modify k1 demflag 0
fix_modify d2 demflag 0
fix_modify d1 demflag 0
Step CPU Atoms c_myNtypes[2] c_myNtypes[3] c_myNtypes[4] c_myNtypes[5] c_myNtypes[6] 
    5005            0      797          149          149          249          250            0 
number of iterations: 3000 
    5006   0.16484584      797          149          149          249          250            0 
Loop time of 0.164859 on 4 procs for 1 steps with 797 atoms

fix_modify k1 demflag 1
fix_modify d2 demflag 1
fix_modify d1 demflag 1
delete_atoms region reg3
Deleted 0 atoms, new total = 797
timestep 1e-3
run 1000 pre no post no
Step CPU Atoms c_myNtypes[2] c_myNtypes[3] c_myNtypes[4] c_myNtypes[5] c_myNtypes[6] 
    5006            0      797          149          149          249          250            0 
    6006  0.035664417      797          149          149          249          250            0 
Loop time of 0.0356957 on 4 procs for 1000 steps with 797 atoms

timestep 10800
fix_modify k1 demflag 0
fix_modify d2 demflag 0
fix_modify d1 demflag 0
Step CPU Atoms c_myNtypes[2] c_myNtypes[3] c_myNtypes[4] c_myNtypes[5] c_myNtypes[6] 
    6006            0      797          149          149          249          250            0 
number of iterations: 3000 
    6007   0.18026425      946          149          298          249          250            0 
Loop time of 0.180278 on 4 procs for 1 steps with 946 atoms

fix_modify k1 demflag 1
fix_modify d2 demflag 1
fix_modify d1 demflag 1
delete_atoms region reg3
Deleted 0 atoms, new total = 946
timestep 1e-3
run 1000 pre no post no
Step CPU Atoms c_myNtypes[2] c_myNtypes[3] c_myNtypes[4] c_myNtypes[5] c_myNtypes[6] 
    6007            0      946          149          298          249          250            0 
    7007  0.041187816      946          149          298          249          250            0 
Loop time of 0.041207 on 4 procs for 1000 steps with 946 atoms

timestep 10800
fix_modify k1 demflag 0
fix_modify d2 demflag 0
fix_modify d1 demflag 0
Step CPU Atoms c_myNtypes[2] c_myNtypes[3] c_myNtypes[4] c_myNtypes[5] c_myNtypes[6] 
    7007            0      946          149          298          249          250            0 
number of iterations: 3000 
    7008   0.18458446     1095          298          298          249          250            0 
Loop time of 0.184604 on 4 procs for 1 steps with 1095 atoms

fix_modify k1 demflag 1
fix_modify d2 demflag 1
fix_modify d1 demflag 1
delete_atoms region reg3
Deleted 0 atoms, new total = 1095
timestep 1e-3
run 1000 pre no post no
Step CPU Atoms c_myNtypes[2] c_myNtypes[3] c_myNtypes[4] c_myNtypes[5] c_myNtypes[6] 
    7008            0     1095          298          298          249          250            0 
    8008  0.046040911     1095          298          298          249          250            0 
Loop time of 0.0460577 on 4 procs for 1000 steps with 1095 atoms

timestep 10800
fix_modify k1 demflag 0
fix_modify d2 demflag 0
fix_modify d1 demflag 0
Step CPU Atoms c_myNtypes[2] c_myNtypes[3] c_myNtypes[4] c_myNtypes[5] c_myNtypes[6] 
    8008            0     1095          298          298          249          250            0 
number of iterations: 3000 
    8009   0.18340601     1095          298          298          249          250            0 
Loop time of 0.18342 on 4 procs for 1 steps with 1095 atoms

fix_modify k1 demflag 1
fix_modify d2 demflag 1
fix_modify d1 demflag 1
delete_atoms region reg3
Deleted 0 atoms, new total = 1095
timestep 1e-3
run 1000 pre no post no
Step CPU Atoms c_myNtypes[2] c_myNtypes[3] c_myNtypes[4] c_myNtypes[5] c_myNtypes[6] 
    8009            0     1095          298          298          249          250            0 
    9009  0.046011939     1095          298          298          249          250            0 
Loop time of 0.0460307 on 4 procs for 1000 steps with 1095 atoms

timestep 10800
fix_modify k1 demflag 0
fix_modify d2 demflag 0
fix_modify d1 demflag 0
Step CPU Atoms c_myNtypes[2] c_myNtypes[3] c_myNtypes[4] c_myNtypes[5] c_myNtypes[6] 
    9009            0     1095          298          298          249          250            0 
number of iterations: 3000 
    9010   0.18190657     1095          298          298          249          250            0 
Loop time of 0.181922 on 4 procs for 1 steps with 1095 atoms

fix_modify k1 demflag 1
fix_modify d2 demflag 1
fix_modify d1 demflag 1
delete_atoms region reg3
Deleted 0 atoms, new total = 1095
timestep 1e-3
run 1000 pre no post no
Step CPU Atoms c_myNtypes[2] c_myNtypes[3] c_myNtypes[4] c_myNtypes[5] c_myNtypes[6] 
    9010            0     1095          298          298          249          250            0 
   10010  0.045890814     1095          298          298          249          250            0 
Loop time of 0.045908 on 4 procs for 1000 steps with 1095 atoms

timestep 10800
fix_modify k1 demflag 0
fix_modify d2 demflag 0
fix_modify d1 demflag 0
Step CPU Atoms c_myNtypes[2] c_myNtypes[3] c_myNtypes[4] c_myNtypes[5] c_myNtypes[6] 
   10010            0     1095          298          298          249          250            0 
number of iterations: 3000 
   10011   0.18478592     1095          298          298          249          250            0 
Loop time of 0.184809 on 4 procs for 1 steps with 1095 atoms

fix_modify k1 demflag 1
fix_modify d2 demflag 1
fix_modify d1 demflag 1
delete_atoms region reg3
Deleted 0 atoms, new total = 1095
timestep 1e-3
run 1000 pre no post no
Step CPU Atoms c_myNtypes[2] c_myNtypes[3] c_myNtypes[4] c_myNtypes[5] c_myNtypes[6] 
   10011            0     1095          298          298          249          250            0 
   11011  0.048003594     1095          298          298          249          250            0 
Loop time of 0.0480204 on 4 procs for 1000 steps with 1095 atoms

timestep 10800
fix_modify k1 demflag 0
fix_modify d2 demflag 0
fix_modify d1 demflag 0
Step CPU Atoms c_myNtypes[2] c_myNtypes[3] c_myNtypes[4] c_myNtypes[5] c_myNtypes[6] 
   11011            0     1095          298          298          249          250            0 
number of iterations: 3000 
   11012   0.18328247     1095          298          298          249          250            0 
Loop time of 0.183298 on 4 procs for 1 steps with 1095 atoms

fix_modify k1 demflag 1
fix_modify d2 demflag 1
fix_modify d1 demflag 1
delete_atoms region reg3
Deleted 0 atoms, new total = 1095
timestep 1e-3
run 1000 pre no post no
Step CPU Atoms c_myNtypes[2] c_myNtypes[3] c_myNtypes[4] c_myNtypes[5] c_myNtypes[6] 
   11012            0     1095          298          298          249          250            0 
   12012   0.04775807     1095          298          298          249          250            0 
Loop time of 0.0477761 on 4 procs for 1000 steps with 1095 atoms

timestep 10800
fix_modify k1 demflag 0
fix_modify d2 demflag 0
fix_modify d1 demflag 0
Step CPU Atoms c_myNtypes[2] c_myNtypes[3] c_myNtypes[4] c_myNtypes[5] c_myNtypes[6] 
   12012            0     1095          298          298          249          250            0 
number of iterations: 3000 
   12013   0.18402485     1095          298          298          249          250            0 
Loop time of 0.184041 on 4 procs for 1 steps with 1095 atoms

fix_modify k1 demflag 1
fix_modify d2 demflag 1
fix_modify d1 demflag 1
delete_atoms region reg3
Deleted 0 atoms, new total = 1095
timestep 1e-3
run 1000 pre no post no
Step CPU Atoms c_myNtypes[2] c_myNtypes[3] c_myNtypes[4] c_myNtypes[5] c_myNtypes[6] 
   12013            0     1095          298          298          249          250            0 
   13013  0.049759404     1095          298          298          249          250            0 
Loop time of 0.0497768 on 4 procs for 1000 steps with 1095 atoms

timestep 10800
fix_modify k1 demflag 0
fix_modify d2 demflag 0
fix_modify d1 demflag 0
Step CPU Atoms c_myNtypes[2] c_myNtypes[3] c_myNtypes[4] c_myNtypes[5] c_myNtypes[6] 
   13013            0     1095          298          298          249          250            0 
number of iterations: 3000 
   13014    0.1870196     1095          298          298          249          250            0 
Loop time of 0.187034 on 4 procs for 1 steps with 1095 atoms

fix_modify k1 demflag 1
fix_modify d2 demflag 1
fix_modify d1 demflag 1
delete_atoms region reg3
Deleted 0 atoms, new total = 1095
timestep 1e-3
run 1000 pre no post no
Step CPU Atoms c_myNtypes[2] c_myNtypes[3] c_myNtypes[4] c_myNtypes[5] c_myNtypes[6] 
   13014            0     1095          298          298          249          250            0 
   14014  0.050125964     1095          298          298          249          250            0 
Loop time of 0.0501427 on 4 procs for 1000 steps with 1095 atoms

timestep 10800
fix_modify k1 demflag 0
fix_modify d2 demflag 0
fix_modify d1 demflag 0
Step CPU Atoms c_myNtypes[2] c_myNtypes[3] c_myNtypes[4] c_myNtypes[5] c_myNtypes[6] 
   14014            0     1095          298          298          249          250            0 
number of iterations: 3000 
   14015   0.18541578     1096          298          299          249          250            0 
Loop time of 0.185432 on 4 procs for 1 steps with 1096 atoms

fix_modify k1 demflag 1
fix_modify d2 demflag 1
fix_modify d1 demflag 1
delete_atoms region reg3
Deleted 0 atoms, new total = 1096
timestep 1e-3
run 1000 pre no post no
Step CPU Atoms c_myNtypes[2] c_myNtypes[3] c_myNtypes[4] c_myNtypes[5] c_myNtypes[6] 
   14015            0     1096          298          299          249          250            0 
   15015  0.051946732     1096          298          299          249          250            0 
Loop time of 0.0519627 on 4 procs for 1000 steps with 1096 atoms

timestep 10800
fix_modify k1 demflag 0
fix_modify d2 demflag 0
fix_modify d1 demflag 0
Step CPU Atoms c_myNtypes[2] c_myNtypes[3] c_myNtypes[4] c_myNtypes[5] c_myNtypes[6] 
   15015            0     1096          298          299          249          250            0 
number of iterations: 3000 
   15016     0.194735     1152          306          347          249          250            0 
Loop time of 0.194754 on 4 procs for 1 steps with 1152 atoms

fix_modify k1 demflag 1
fix_modify d2 demflag 1
fix_modify d1 demflag 1
delete_atoms region reg3
Deleted 0 atoms, new total = 1152
timestep 1e-3
run 1000 pre no post no
Step CPU Atoms c_myNtypes[2] c_myNtypes[3] c_myNtypes[4] c_myNtypes[5] c_myNtypes[6] 
   15016            0     1152          306          347          249          250            0 
   16016  0.052404159     1152          306          347          249          250            0 
Loop time of 0.0524193 on 4 procs for 1000 steps with 1152 atoms

timestep 10800
fix_modify k1 demflag 0
fix_modify d2 demflag 0
fix_modify d1 demflag 0
Step CPU Atoms c_myNtypes[2] c_myNtypes[3] c_myNtypes[4] c_myNtypes[5] c_myNtypes[6] 
   16016            0     1152          306          347          249          250            0 
number of iterations: 3000 
   16017   0.18851638     1251          342          410          249          250            0 
Loop time of 0.188532 on 4 procs for 1 steps with 1251 atoms

fix_modify k1 demflag 1
fix_modify d2 demflag 1
fix_modify d1 demflag 1
delete_atoms region reg3
Deleted 0 atoms, new total = 1251
timestep 1e-3
run 1000 pre no post no
Step CPU Atoms c_myNtypes[2] c_myNtypes[3] c_myNtypes[4] c_myNtypes[5] c_myNtypes[6] 
   16017            0     1251          342          410          249          250            0 
   17017  0.058142321     1251          342          410          249          250            0 
Loop time of 0.05816 on 4 procs for 1000 steps with 1251 atoms

timestep 10800
fix_modify k1 demflag 0
fix_modify d2 demflag 0
fix_modify d1 demflag 0
Step CPU Atoms c_myNtypes[2] c_myNtypes[3] c_myNtypes[4] c_myNtypes[5] c_myNtypes[6] 
   17017            0     1251          342          410          249          250            0 
number of iterations: 3000 
   17018   0.19239728     1322          392          431          249          250            0 
Loop time of 0.192413 on 4 procs for 1 steps with 1322 atoms

fix_modify k1 demflag 1
fix_modify d2 demflag 1
fix_modify d1 demflag 1
delete_atoms region reg3
Deleted 0 atoms, new total = 1322
timestep 1e-3
run 1000 pre no post no
Step CPU Atoms c_myNtypes[2] c_myNtypes[3] c_myNtypes[4] c_myNtypes[5] c_myNtypes[6] 
   17018            0     1322          392          431          249          250            0 
   18018  0.059223823     1322          392          431          249          250            0 
Loop time of 0.0592409 on 4 procs for 1000 steps with 1322 atoms

timestep 10800
fix_modify k1 demflag 0
fix_modify d2 demflag 0
fix_modify d1 demflag 0
Step CPU Atoms c_myNtypes[2] c_myNtypes[3] c_myNtypes[4] c_myNtypes[5] c_myNtypes[6] 
   18018            0     1322          392          431          249          250            0 
number of iterations: 3000 
   18019   0.19635477     1388          432          457          249          250            0 
Loop time of 0.196371 on 4 procs for 1 steps with 1388 atoms

fix_modify k1 demflag 1
fix_modify d2 demflag 1
fix_modify d1 demflag 1
delete_atoms region reg3
Deleted 0 atoms, new total = 1388
timestep 1e-3
run 1000 pre no post no
Step CPU Atoms c_myNtypes[2] c_myNtypes[3] c_myNtypes[4] c_myNtypes[5] c_myNtypes[6] 
   18019            0     1388          432          457          249          250            0 
   19019  0.064287877     1388          432          457          249          250            0 
Loop time of 0.0643063 on 4 procs for 1000 steps with 1388 atoms

timestep 10800
fix_modify k1 demflag 0
fix_modify d2 demflag 0
fix_modify d1 demflag 0
Step CPU Atoms c_myNtypes[2] c_myNtypes[3] c_myNtypes[4] c_myNtypes[5] c_myNtypes[6] 
   19019            0     1388          432          457          249          250            0 
number of iterations: 3000 
   19020   0.19463403     1449          474          476          249          250            0 
Loop time of 0.19465 on 4 procs for 1 steps with 1449 atoms

fix_modify k1 demflag 1
fix_modify d2 demflag 1
fix_modify d1 demflag 1
delete_atoms region reg3
Deleted 0 atoms, new total = 1449
timestep 1e-3
run 1000 pre no post no
Step CPU Atoms c_myNtypes[2] c_myNtypes[3] c_myNtypes[4] c_myNtypes[5] c_myNtypes[6] 
   19020            0     1449          474          476          249          250            0 
   20020  0.065318229     1449          474          476          249          250            0 
Loop time of 0.0653357 on 4 procs for 1000 steps with 1449 atoms

timestep 10800
fix_modify k1 demflag 0
fix_modify d2 demflag 0
fix_modify d1 demflag 0
Step CPU Atoms c_myNtypes[2] c_myNtypes[3] c_myNtypes[4] c_myNtypes[5] c_myNtypes[6] 
   20020            0     1449          474          476          249          250            0 
number of iterations: 3000 
   20021   0.19755855     1543          514          530          249          250            0 
Loop time of 0.197574 on 4 procs for 1 steps with 1543 atoms

fix_modify k1 demflag 1
fix_modify d2 demflag 1
fix_modify d1 demflag 1
delete_atoms region reg3
Deleted 0 atoms, new total = 1543
timestep 1e-3
run 1000 pre no post no
Step CPU Atoms c_myNtypes[2] c_myNtypes[3] c_myNtypes[4] c_myNtypes[5] c_myNtypes[6] 
   20021            0     1543          514          530          249          250            0 
   21021  0.075994192     1543          514          530          249          250            0 
Loop time of 0.0760126 on 4 procs for 1000 steps with 1543 atoms

timestep 10800
fix_modify k1 demflag 0
fix_modify d2 demflag 0
fix_modify d1 demflag 0
Step CPU Atoms c_myNtypes[2] c_myNtypes[3] c_myNtypes[4] c_myNtypes[5] c_myNtypes[6] 
   21021            0     1543          514          530          249          250            0 
number of iterations: 3000 
   21022   0.19770926     1614          544          571          249          250            0 
Loop time of 0.197726 on 4 procs for 1 steps with 1614 atoms

fix_modify k1 demflag 1
fix_modify d2 demflag 1
fix_modify d1 demflag 1
delete_atoms region reg3
Deleted 0 atoms, new total = 1614
timestep 1e-3
run 1000 pre no post no
Step CPU Atoms c_myNtypes[2] c_myNtypes[3] c_myNtypes[4] c_myNtypes[5] c_myNtypes[6] 
   21022            0     1614          544          571          249          250            0 
   22022  0.078106707     1614          544          571          249          250            0 
Loop time of 0.0781255 on 4 procs for 1000 steps with 1614 atoms

timestep 10800
fix_modify k1 demflag 0
fix_modify d2 demflag 0
fix_modify d1 demflag 0
Step CPU Atoms c_myNtypes[2] c_myNtypes[3] c_myNtypes[4] c_myNtypes[5] c_myNtypes[6] 
   22022            0     1614          544          571          249          250            0 
number of iterations: 3000 
   22023   0.19978206     1662          569          594          249          250            0 
Loop time of 0.199804 on 4 procs for 1 steps with 1662 atoms

fix_modify k1 demflag 1
fix_modify d2 demflag 1
fix_modify d1 demflag 1
delete_atoms region reg3
Deleted 0 atoms, new total = 1662
timestep 1e-3
run 1000 pre no post no
Step CPU Atoms c_myNtypes[2] c_myNtypes[3] c_myNtypes[4] c_myNtypes[5] c_myNtypes[6] 
   22023            0     1662          569          594          249          250            0 
   23023  0.079361995     1662          569          594          249          250            0 
Loop time of 0.07938 on 4 procs for 1000 steps with 1662 atoms

timestep 10800
fix_modify k1 demflag 0
fix_modify d2 demflag 0
fix_modify d1 demflag 0
Step CPU Atoms c_myNtypes[2] c_myNtypes[3] c_myNtypes[4] c_myNtypes[5] c_myNtypes[6] 
   23023            0     1662          569          594          249          250            0 
number of iterations: 3000 
   23024   0.20076135     1691          596          596          249          250            0 
Loop time of 0.200776 on 4 procs for 1 steps with 1691 atoms

fix_modify k1 demflag 1
fix_modify d2 demflag 1
fix_modify d1 demflag 1
delete_atoms region reg3
Deleted 0 atoms, new total = 1691
timestep 1e-3
run 1000 pre no post no
Step CPU Atoms c_myNtypes[2] c_myNtypes[3] c_myNtypes[4] c_myNtypes[5] c_myNtypes[6] 
   23024            0     1691          596          596          249          250            0 
   24024  0.088783692     1691          596          596          249          250            0 
Loop time of 0.0888003 on 4 procs for 1000 steps with 1691 atoms

timestep 10800
fix_modify k1 demflag 0
fix_modify d2 demflag 0
fix_modify d1 demflag 0
Step CPU Atoms c_myNtypes[2] c_myNtypes[3] c_myNtypes[4] c_myNtypes[5] c_myNtypes[6] 
   24024            0     1691          596          596          249          250            0 
number of iterations: 3000 
   24025    0.2078175     1691          596          596          249          250            0 
Loop time of 0.207835 on 4 procs for 1 steps with 1691 atoms

fix_modify k1 demflag 1
fix_modify d2 demflag 1
fix_modify d1 demflag 1
delete_atoms region reg3
Deleted 0 atoms, new total = 1691
timestep 1e-3
run 1000 pre no post no
Step CPU Atoms c_myNtypes[2] c_myNtypes[3] c_myNtypes[4] c_myNtypes[5] c_myNtypes[6] 
   24025            0     1691          596          596          249          250            0 
   25025  0.084700136     1691          596          596          249          250            0 
Loop time of 0.0847194 on 4 procs for 1000 steps with 1691 atoms

timestep 10800
fix_modify k1 demflag 0
fix_modify d2 demflag 0
fix_modify d1 demflag 0
Step CPU Atoms c_myNtypes[2] c_myNtypes[3] c_myNtypes[4] c_myNtypes[5] c_myNtypes[6] 
   25025            0     1691          596          596          249          250            0 
number of iterations: 3000 
   25026   0.20061366     1692          596          597          249          250            0 
Loop time of 0.200631 on 4 procs for 1 steps with 1692 atoms

fix_modify k1 demflag 1
fix_modify d2 demflag 1
fix_modify d1 demflag 1
delete_atoms region reg3
Deleted 0 atoms, new total = 1692
timestep 1e-3
run 1000 pre no post no
Step CPU Atoms c_myNtypes[2] c_myNtypes[3] c_myNtypes[4] c_myNtypes[5] c_myNtypes[6] 
   25026            0     1692          596          597          249          250            0 
   26026  0.088530916     1692          596          597          249          250            0 
Loop time of 0.08855 on 4 procs for 1000 steps with 1692 atoms

timestep 10800
fix_modify k1 demflag 0
fix_modify d2 demflag 0
fix_modify d1 demflag 0
Step CPU Atoms c_myNtypes[2] c_myNtypes[3] c_myNtypes[4] c_myNtypes[5] c_myNtypes[6] 
   26026            0     1692          596          597          249          250            0 
number of iterations: 3000 
   26027   0.20061978     1705          596          610          249          250            0 
Loop time of 0.200636 on 4 procs for 1 steps with 1705 atoms

fix_modify k1 demflag 1
fix_modify d2 demflag 1
fix_modify d1 demflag 1
delete_atoms region reg3
Deleted 0 atoms, new total = 1705
timestep 1e-3
run 1000 pre no post no
Step CPU Atoms c_myNtypes[2] c_myNtypes[3] c_myNtypes[4] c_myNtypes[5] c_myNtypes[6] 
   26027            0     1705          596          610          249          250            0 
   27027  0.090872283     1705          596          610          249          250            0 
Loop time of 0.0908907 on 4 procs for 1000 steps with 1705 atoms

timestep 10800
fix_modify k1 demflag 0
fix_modify d2 demflag 0
fix_modify d1 demflag 0
Step CPU Atoms c_myNtypes[2] c_myNtypes[3] c_myNtypes[4] c_myNtypes[5] c_myNtypes[6] 
   27027            0     1705          596          610          249          250            0 
number of iterations: 3000 
   27028   0.20059037     1744          603          642          249          250            0 
Loop time of 0.200606 on 4 procs for 1 steps with 1744 atoms

fix_modify k1 demflag 1
fix_modify d2 demflag 1
fix_modify d1 demflag 1
delete_atoms region reg3
Deleted 0 atoms, new total = 1744
timestep 1e-3
run 1000 pre no post no
Step CPU Atoms c_myNtypes[2] c_myNtypes[3] c_myNtypes[4] c_myNtypes[5] c_myNtypes[6] 
   27028            0     1744          603          642          249          250            0 
   28028  0.094783052     1744          603          642          249          250            0 
Loop time of 0.0948038 on 4 procs for 1000 steps with 1744 atoms

timestep 10800
fix_modify k1 demflag 0
fix_modify d2 demflag 0
fix_modify d1 demflag 0
Step CPU Atoms c_myNtypes[2] c_myNtypes[3] c_myNtypes[4] c_myNtypes[5] c_myNtypes[6] 
   28028            0     1744          603          642          249          250            0 
number of iterations: 3000 
   28029   0.20215328     1775          612          664          249          250            0 
Loop time of 0.20217 on 4 procs for 1 steps with 1775 atoms

fix_modify k1 demflag 1
fix_modify d2 demflag 1
fix_modify d1 demflag 1
delete_atoms region reg3
Deleted 0 atoms, new total = 1775
timestep 1e-3
run 1000 pre no post no
Step CPU Atoms c_myNtypes[2] c_myNtypes[3] c_myNtypes[4] c_myNtypes[5] c_myNtypes[6] 
   28029            0     1775          612          664          249          250            0 
   29029  0.096279142     1775          612          664          249          250            0 
Loop time of 0.0962979 on 4 procs for 1000 steps with 1775 atoms

timestep 10800
fix_modify k1 demflag 0
fix_modify d2 demflag 0
fix_modify d1 demflag 0
Step CPU Atoms c_myNtypes[2] c_myNtypes[3] c_myNtypes[4] c_myNtypes[5] c_myNtypes[6] 
   29029            0     1775          612          664          249          250            0 
number of iterations: 3000 
   29030   0.20485382     1854          638          717          249          250            0 
Loop time of 0.204875 on 4 procs for 1 steps with 1854 atoms

fix_modify k1 demflag 1
fix_modify d2 demflag 1
fix_modify d1 demflag 1
delete_atoms region reg3
Deleted 0 atoms, new total = 1854
timestep 1e-3
run 1000 pre no post no
Step CPU Atoms c_myNtypes[2] c_myNtypes[3] c_myNtypes[4] c_myNtypes[5] c_myNtypes[6] 
   29030            0     1854          638          717          249          250            0 
   30030   0.10091537     1854          638          717          249          250            0 
Loop time of 0.100943 on 4 procs for 1000 steps with 1854 atoms

timestep 10800
fix_modify k1 demflag 0
fix_modify d2 demflag 0
fix_modify d1 demflag 0
Step CPU Atoms c_myNtypes[2] c_myNtypes[3] c_myNtypes[4] c_myNtypes[5] c_myNtypes[6] 
   30030            0     1854          638          717          249          250            0 
number of iterations: 3000 
   30031   0.20611703     1937          680          758          249          250            0 
Loop time of 0.206132 on 4 procs for 1 steps with 1937 atoms

fix_modify k1 demflag 1
fix_modify d2 demflag 1
fix_modify d1 demflag 1
delete_atoms region reg3
Deleted 0 atoms, new total = 1937
timestep 1e-3
run 1000 pre no post no
Step CPU Atoms c_myNtypes[2] c_myNtypes[3] c_myNtypes[4] c_myNtypes[5] c_myNtypes[6] 
   30031            0     1937          680          758          249          250            0 
   31031   0.10205131     1937          680          758          249          250            0 
Loop time of 0.102071 on 4 procs for 1000 steps with 1937 atoms

timestep 10800
fix_modify k1 demflag 0
fix_modify d2 demflag 0
fix_modify d1 demflag 0
Step CPU Atoms c_myNtypes[2] c_myNtypes[3] c_myNtypes[4] c_myNtypes[5] c_myNtypes[6] 
   31031            0     1937          680          758          249          250            0 
number of iterations: 3000 
   31032   0.20742473     2010          717          794          249          250            0 
Loop time of 0.20744 on 4 procs for 1 steps with 2010 atoms

fix_modify k1 demflag 1
fix_modify d2 demflag 1
fix_modify d1 demflag 1
delete_atoms region reg3
Deleted 0 atoms, new total = 2010
timestep 1e-3
run 1000 pre no post no
Step CPU Atoms c_myNtypes[2] c_myNtypes[3] c_myNtypes[4] c_myNtypes[5] c_myNtypes[6] 
   31032            0     2010          717          794          249          250            0 
   32032   0.10613219     2010          717          794          249          250            0 
Loop time of 0.10615 on 4 procs for 1000 steps with 2010 atoms

timestep 10800
fix_modify k1 demflag 0
fix_modify d2 demflag 0
fix_modify d1 demflag 0
Step CPU Atoms c_myNtypes[2] c_myNtypes[3] c_myNtypes[4] c_myNtypes[5] c_myNtypes[6] 
   32032            0     2010          717          794          249          250            0 
number of iterations: 3000 
   32033   0.20870803     2099          759          841          249          250            0 
Loop time of 0.208742 on 4 procs for 1 steps with 2099 atoms

fix_modify k1 demflag 1
fix_modify d2 demflag 1
fix_modify d1 demflag 1
delete_atoms region reg3
Deleted 0 atoms, new total = 2099
timestep 1e-3
run 1000 pre no post no
Step CPU Atoms c_myNtypes[2] c_myNtypes[3] c_myNtypes[4] c_myNtypes[5] c_myNtypes[6] 
   32033            0     2099          759          841          249          250            0 
   33033   0.10677886     2099          759          841          249          250            0 
Loop time of 0.106794 on 4 procs for 1000 steps with 2099 atoms

timestep 10800
fix_modify k1 demflag 0
fix_modify d2 demflag 0
fix_modify d1 demflag 0
Step CPU Atoms c_myNtypes[2] c_myNtypes[3] c_myNtypes[4] c_myNtypes[5] c_myNtypes[6] 
   33033            0     2099          759          841          249          250            0 
number of iterations: 3000 
   33034   0.20940785     2196          795          902          249          250            0 
Loop time of 0.209425 on 4 procs for 1 steps with 2196 atoms

fix_modify k1 demflag 1
fix_modify d2 demflag 1
fix_modify d1 demflag 1
delete_atoms region reg3
Deleted 0 atoms, new total = 2196
timestep 1e-3
run 1000 pre no post no
Step CPU Atoms c_myNtypes[2] c_myNtypes[3] c_myNtypes[4] c_myNtypes[5] c_myNtypes[6] 
   33034            0     2196          795          902          249          250            0 
   34034   0.11187047     2196          795          902          249          250            0 
Loop time of 0.11189 on 4 procs for 1000 steps with 2196 atoms

timestep 10800
fix_modify k1 demflag 0
fix_modify d2 demflag 0
fix_modify d1 demflag 0
Step CPU Atoms c_myNtypes[2] c_myNtypes[3] c_myNtypes[4] c_myNtypes[5] c_myNtypes[6] 
   34034            0     2196          795          902          249          250            0 
number of iterations: 3000 
   34035   0.22843464     2297          847          951          249          250            0 
Loop time of 0.228452 on 4 procs for 1 steps with 2297 atoms

fix_modify k1 demflag 1
fix_modify d2 demflag 1
fix_modify d1 demflag 1
delete_atoms region reg3
Deleted 0 atoms, new total = 2297
timestep 1e-3
run 1000 pre no post no
Step CPU Atoms c_myNtypes[2] c_myNtypes[3] c_myNtypes[4] c_myNtypes[5] c_myNtypes[6] 
   34035            0     2297          847          951          249          250            0 
   35035   0.11489068     2297          847          951          249          250            0 
Loop time of 0.11491 on 4 procs for 1000 steps with 2297 atoms

timestep 10800
fix_modify k1 demflag 0
fix_modify d2 demflag 0
fix_modify d1 demflag 0
Step CPU Atoms c_myNtypes[2] c_myNtypes[3] c_myNtypes[4] c_myNtypes[5] c_myNtypes[6] 
   35035            0     2297          847          951          249          250            0 
number of iterations: 3000 
   35036   0.22942681     2359          880          980          249          250            0 
Loop time of 0.229444 on 4 procs for 1 steps with 2359 atoms

fix_modify k1 demflag 1
fix_modify d2 demflag 1
fix_modify d1 demflag 1
delete_atoms region reg3
Deleted 0 atoms, new total = 2359
timestep 1e-3
run 1000 pre no post no
Step CPU Atoms c_myNtypes[2] c_myNtypes[3] c_myNtypes[4] c_myNtypes[5] c_myNtypes[6] 
   35036            0     2359          880          980          249          250            0 
   36036    0.1202368     2359          880          980          249          250            0 
Loop time of 0.120258 on 4 procs for 1000 steps with 2359 atoms

timestep 10800
fix_modify k1 demflag 0
fix_modify d2 demflag 0
fix_modify d1 demflag 0
Step CPU Atoms c_myNtypes[2] c_myNtypes[3] c_myNtypes[4] c_myNtypes[5] c_myNtypes[6] 
   36036            0     2359          880          980          249          250            0 
number of iterations: 3000 
   36037   0.23189376     2464          928         1037          249          250            0 
Loop time of 0.23191 on 4 procs for 1 steps with 2464 atoms

fix_modify k1 demflag 1
fix_modify d2 demflag 1
fix_modify d1 demflag 1
delete_atoms region reg3
Deleted 0 atoms, new total = 2464
timestep 1e-3
run 1000 pre no post no
Step CPU Atoms c_myNtypes[2] c_myNtypes[3] c_myNtypes[4] c_myNtypes[5] c_myNtypes[6] 
   36037            0     2464          928         1037          249          250            0 
   37037   0.12782912     2464          928         1037          249          250            0 
Loop time of 0.127851 on 4 procs for 1000 steps with 2464 atoms

timestep 10800
fix_modify k1 demflag 0
fix_modify d2 demflag 0
fix_modify d1 demflag 0
Step CPU Atoms c_myNtypes[2] c_myNtypes[3] c_myNtypes[4] c_myNtypes[5] c_myNtypes[6] 
   37037            0     2464          928         1037          249          250            0 
number of iterations: 3000 
   37038    0.2316872     2542          976         1067          249          250            0 
Loop time of 0.23171 on 4 procs for 1 steps with 2542 atoms

fix_modify k1 demflag 1
fix_modify d2 demflag 1
fix_modify d1 demflag 1
delete_atoms region reg3
Deleted 0 atoms, new total = 2542
timestep 1e-3
run 1000 pre no post no
Step CPU Atoms c_myNtypes[2] c_myNtypes[3] c_myNtypes[4] c_myNtypes[5] c_myNtypes[6] 
   37038            0     2542          976         1067          249          250            0 
   38038    0.1290554     2542          976         1067          249          250            0 
Loop time of 0.129087 on 4 procs for 1000 steps with 2542 atoms

timestep 10800
fix_modify k1 demflag 0
fix_modify d2 demflag 0
fix_modify d1 demflag 0
Step CPU Atoms c_myNtypes[2] c_myNtypes[3] c_myNtypes[4] c_myNtypes[5] c_myNtypes[6] 
   38038            0     2542          976         1067          249          250            0 
number of iterations: 3000 
   38039   0.23120909     2604         1008         1097          249          250            0 
Loop time of 0.231229 on 4 procs for 1 steps with 2604 atoms

fix_modify k1 demflag 1
fix_modify d2 demflag 1
fix_modify d1 demflag 1
delete_atoms region reg3
Deleted 0 atoms, new total = 2604
timestep 1e-3
run 1000 pre no post no
Step CPU Atoms c_myNtypes[2] c_myNtypes[3] c_myNtypes[4] c_myNtypes[5] c_myNtypes[6] 
   38039            0     2604         1008         1097          249          250            0 
   39039   0.13086248     2604         1008         1097          249          250            0 
Loop time of 0.130883 on 4 procs for 1000 steps with 2604 atoms

timestep 10800
fix_modify k1 demflag 0
fix_modify d2 demflag 0
fix_modify d1 demflag 0
Step CPU Atoms c_myNtypes[2] c_myNtypes[3] c_myNtypes[4] c_myNtypes[5] c_myNtypes[6] 
   39039            0     2604         1008         1097          249          250            0 
number of iterations: 3000 
   39040   0.23416098     2661         1040         1122          249          250            0 
Loop time of 0.234178 on 4 procs for 1 steps with 2661 atoms

fix_modify k1 demflag 1
fix_modify d2 demflag 1
fix_modify d1 demflag 1
delete_atoms region reg3
Deleted 0 atoms, new total = 2661
timestep 1e-3
run 1000 pre no post no
Step CPU Atoms c_myNtypes[2] c_myNtypes[3] c_myNtypes[4] c_myNtypes[5] c_myNtypes[6] 
   39040            0     2661         1040         1122          249          250            0 
   40040   0.13638979     2661         1040         1122          249          250            0 
Loop time of 0.136407 on 4 procs for 1000 steps with 2661 atoms

timestep 10800
fix_modify k1 demflag 0
fix_modify d2 demflag 0
fix_modify d1 demflag 0
Step CPU Atoms c_myNtypes[2] c_myNtypes[3] c_myNtypes[4] c_myNtypes[5] c_myNtypes[6] 
   40040            0     2661         1040         1122          249          250            0 
number of iterations: 3000 
   40041   0.23222701     2701         1061         1141          249          250            0 
Loop time of 0.232246 on 4 procs for 1 steps with 2701 atoms

fix_modify k1 demflag 1
fix_modify d2 demflag 1
fix_modify d1 demflag 1
delete_atoms region reg3
Deleted 0 atoms, new total = 2701
timestep 1e-3
run 1000 pre no post no
Step CPU Atoms c_myNtypes[2] c_myNtypes[3] c_myNtypes[4] c_myNtypes[5] c_myNtypes[6] 
   40041            0     2701         1061         1141          249          250            0 
   41041   0.13794755     2701         1061         1141          249          250            0 
Loop time of 0.137976 on 4 procs for 1000 steps with 2701 atoms

timestep 10800
fix_modify k1 demflag 0
fix_modify d2 demflag 0
fix_modify d1 demflag 0
Step CPU Atoms c_myNtypes[2] c_myNtypes[3] c_myNtypes[4] c_myNtypes[5] c_myNtypes[6] 
   41041            0     2701         1061         1141          249          250            0 
number of iterations: 3000 
   41042   0.23278838     2741         1078         1164          249          250            0 
Loop time of 0.232804 on 4 procs for 1 steps with 2741 atoms

fix_modify k1 demflag 1
fix_modify d2 demflag 1
fix_modify d1 demflag 1
delete_atoms region reg3
Deleted 0 atoms, new total = 2741
timestep 1e-3
run 1000 pre no post no
Step CPU Atoms c_myNtypes[2] c_myNtypes[3] c_myNtypes[4] c_myNtypes[5] c_myNtypes[6] 
   41042            0     2741         1078         1164          249          250            0 
   42042   0.14860131     2741         1078         1164          249          250            0 
Loop time of 0.148622 on 4 procs for 1000 steps with 2741 atoms

timestep 10800
fix_modify k1 demflag 0
fix_modify d2 demflag 0
fix_modify d1 demflag 0
Step CPU Atoms c_myNtypes[2] c_myNtypes[3] c_myNtypes[4] c_myNtypes[5] c_myNtypes[6] 
   42042            0     2741         1078         1164          249          250            0 
number of iterations: 3000 
   42043   0.23342386     2772         1094         1179          249          250            0 
Loop time of 0.233442 on 4 procs for 1 steps with 2772 atoms

fix_modify k1 demflag 1
fix_modify d2 demflag 1
fix_modify d1 demflag 1
delete_atoms region reg3
Deleted 0 atoms, new total = 2772
timestep 1e-3
run 1000 pre no post no
Step CPU Atoms c_myNtypes[2] c_myNtypes[3] c_myNtypes[4] c_myNtypes[5] c_myNtypes[6] 
   42043            0     2772         1094         1179          249          250            0 
   43043   0.14725326     2772         1094         1179          249          250            0 
Loop time of 0.147274 on 4 procs for 1000 steps with 2772 atoms

timestep 10800
fix_modify k1 demflag 0
fix_modify d2 demflag 0
fix_modify d1 demflag 0
Step CPU Atoms c_myNtypes[2] c_myNtypes[3] c_myNtypes[4] c_myNtypes[5] c_myNtypes[6] 
   43043            0     2772         1094         1179          249          250            0 
number of iterations: 3000 
   43044   0.23371847     2822         1116         1207          249          250            0 
Loop time of 0.233737 on 4 procs for 1 steps with 2822 atoms

fix_modify k1 demflag 1
fix_modify d2 demflag 1
fix_modify d1 demflag 1
delete_atoms region reg3
Deleted 0 atoms, new total = 2822
timestep 1e-3
run 1000 pre no post no
Step CPU Atoms c_myNtypes[2] c_myNtypes[3] c_myNtypes[4] c_myNtypes[5] c_myNtypes[6] 
   43044            0     2822         1116         1207          249          250            0 
   44044   0.14852641     2822         1116         1207          249          250            0 
Loop time of 0.148548 on 4 procs for 1000 steps with 2822 atoms

timestep 10800
fix_modify k1 demflag 0
fix_modify d2 demflag 0
fix_modify d1 demflag 0
Step CPU Atoms c_myNtypes[2] c_myNtypes[3] c_myNtypes[4] c_myNtypes[5] c_myNtypes[6] 
   44044            0     2822         1116         1207          249          250            0 
number of iterations: 3000 
   44045   0.23695566     2864         1137         1228          249          250            0 
Loop time of 0.236974 on 4 procs for 1 steps with 2864 atoms

fix_modify k1 demflag 1
fix_modify d2 demflag 1
fix_modify d1 demflag 1
delete_atoms region reg3
Deleted 0 atoms, new total = 2864
timestep 1e-3
run 1000 pre no post no
Step CPU Atoms c_myNtypes[2] c_myNtypes[3] c_myNtypes[4] c_myNtypes[5] c_myNtypes[6] 
   44045            0     2864         1137         1228          249          250            0 
   45045   0.15186726     2864         1137         1228          249          250            0 
Loop time of 0.151889 on 4 procs for 1000 steps with 2864 atoms

timestep 10800
fix_modify k1 demflag 0
fix_modify d2 demflag 0
fix_modify d1 demflag 0
Step CPU Atoms c_myNtypes[2] c_myNtypes[3] c_myNtypes[4] c_myNtypes[5] c_myNtypes[6] 
   45045            0     2864         1137         1228          249          250            0 
number of iterations: 3000 
   45046   0.23569899     2899         1149         1251          249          250            0 
Loop time of 0.235716 on 4 procs for 1 steps with 2899 atoms

fix_modify k1 demflag 1
fix_modify d2 demflag 1
fix_modify d1 demflag 1
delete_atoms region reg3
Deleted 0 atoms, new total = 2899
timestep 1e-3
run 1000 pre no post no
Step CPU Atoms c_myNtypes[2] c_myNtypes[3] c_myNtypes[4] c_myNtypes[5] c_myNtypes[6] 
   45046            0     2899         1149         1251          249          250            0 
   46046   0.17893118     2899         1149         1251          249          250            0 
Loop time of 0.178955 on 4 procs for 1000 steps with 2899 atoms

timestep 10800
fix_modify k1 demflag 0
fix_modify d2 demflag 0
fix_modify d1 demflag 0
Step CPU Atoms c_myNtypes[2] c_myNtypes[3] c_myNtypes[4] c_myNtypes[5] c_myNtypes[6] 
   46046            0     2899         1149         1251          249          250            0 
number of iterations: 3000 
   46047    0.2831653     2946         1165         1282          249          250            0 
Loop time of 0.283186 on 4 procs for 1 steps with 2946 atoms

fix_modify k1 demflag 1
fix_modify d2 demflag 1
fix_modify d1 demflag 1
delete_atoms region reg3
Deleted 0 atoms, new total = 2946
timestep 1e-3
run 1000 pre no post no
Step CPU Atoms c_myNtypes[2] c_myNtypes[3] c_myNtypes[4] c_myNtypes[5] c_myNtypes[6] 
   46047            0     2946         1165         1282          249          250            0 
   47047   0.20110297     2946         1165         1282          249          250            0 
Loop time of 0.201127 on 4 procs for 1000 steps with 2946 atoms

timestep 10800
fix_modify k1 demflag 0
fix_modify d2 demflag 0
fix_modify d1 demflag 0
Step CPU Atoms c_myNtypes[2] c_myNtypes[3] c_myNtypes[4] c_myNtypes[5] c_myNtypes[6] 
   47047            0     2946         1165         1282          249          250            0 
number of iterations: 3000 
   47048   0.29813996     2987         1180         1308          249          250            0 
Loop time of 0.29816 on 4 procs for 1 steps with 2987 atoms

fix_modify k1 demflag 1
fix_modify d2 demflag 1
fix_modify d1 demflag 1
delete_atoms region reg3
Deleted 0 atoms, new total = 2987
timestep 1e-3
run 1000 pre no post no
Step CPU Atoms c_myNtypes[2] c_myNtypes[3] c_myNtypes[4] c_myNtypes[5] c_myNtypes[6] 
   47048            0     2987         1180         1308          249          250            0 
   48048   0.22118752     2987         1180         1308          249          250            0 
Loop time of 0.221212 on 4 procs for 1000 steps with 2987 atoms

timestep 10800
fix_modify k1 demflag 0
fix_modify d2 demflag 0
fix_modify d1 demflag 0
Step CPU Atoms c_myNtypes[2] c_myNtypes[3] c_myNtypes[4] c_myNtypes[5] c_myNtypes[6] 
   48048            0     2987         1180         1308          249          250            0 
number of iterations: 3000 
   48049   0.30678426     3039         1194         1346          249          250            0 
Loop time of 0.306804 on 4 procs for 1 steps with 3039 atoms

fix_modify k1 demflag 1
fix_modify d2 demflag 1
fix_modify d1 demflag 1
delete_atoms region reg3
Deleted 0 atoms, new total = 3039
timestep 1e-3
run 1000 pre no post no
Step CPU Atoms c_myNtypes[2] c_myNtypes[3] c_myNtypes[4] c_myNtypes[5] c_myNtypes[6] 
   48049            0     3039         1194         1346          249          250            0 
   49049   0.21301629     3039         1194         1346          249          250            0 
Loop time of 0.213043 on 4 procs for 1000 steps with 3039 atoms

timestep 10800
fix_modify k1 demflag 0
fix_modify d2 demflag 0
fix_modify d1 demflag 0
Step CPU Atoms c_myNtypes[2] c_myNtypes[3] c_myNtypes[4] c_myNtypes[5] c_myNtypes[6] 
   49049            0     3039         1194         1346          249          250            0 
number of iterations: 3000 
   49050   0.29975311     3098         1209         1390          249          250            0 
Loop time of 0.299775 on 4 procs for 1 steps with 3098 atoms

fix_modify k1 demflag 1
fix_modify d2 demflag 1
fix_modify d1 demflag 1
delete_atoms region reg3
Deleted 0 atoms, new total = 3098
timestep 1e-3
run 1000 pre no post no
Step CPU Atoms c_myNtypes[2] c_myNtypes[3] c_myNtypes[4] c_myNtypes[5] c_myNtypes[6] 
   49050            0     3098         1209         1390          249          250            0 
   50050   0.22064869     3098         1209         1390          249          250            0 
Loop time of 0.220673 on 4 procs for 1000 steps with 3098 atoms

timestep 10800
fix_modify k1 demflag 0
fix_modify d2 demflag 0
fix_modify d1 demflag 0
Step CPU Atoms c_myNtypes[2] c_myNtypes[3] c_myNtypes[4] c_myNtypes[5] c_myNtypes[6] 
   50050            0     3098         1209         1390          249          250            0 
number of iterations: 3000 
   50051   0.29477325     3155         1233         1423          249          250            0 
Loop time of 0.294795 on 4 procs for 1 steps with 3155 atoms

fix_modify k1 demflag 1
fix_modify d2 demflag 1
fix_modify d1 demflag 1
delete_atoms region reg3
Deleted 0 atoms, new total = 3155
timestep 1e-3
run 1000 pre no post no
Step CPU Atoms c_myNtypes[2] c_myNtypes[3] c_myNtypes[4] c_myNtypes[5] c_myNtypes[6] 
   50051            0     3155         1233         1423          249          250            0 
   51051   0.22392536     3155         1233         1423          249          250            0 
Loop time of 0.22395 on 4 procs for 1000 steps with 3155 atoms

timestep 10800
fix_modify k1 demflag 0
fix_modify d2 demflag 0
fix_modify d1 demflag 0
Step CPU Atoms c_myNtypes[2] c_myNtypes[3] c_myNtypes[4] c_myNtypes[5] c_myNtypes[6] 
   51051            0     3155         1233         1423          249          250            0 
number of iterations: 3000 
   51052   0.29388326     3219         1252         1468          249          250            0 
Loop time of 0.293904 on 4 procs for 1 steps with 3219 atoms

fix_modify k1 demflag 1
fix_modify d2 demflag 1
fix_modify d1 demflag 1
delete_atoms region reg3
Deleted 0 atoms, new total = 3219
timestep 1e-3
run 1000 pre no post no
Step CPU Atoms c_myNtypes[2] c_myNtypes[3] c_myNtypes[4] c_myNtypes[5] c_myNtypes[6] 
   51052            0     3219         1252         1468          249          250            0 
   52052    0.2330115     3219         1252         1468          249          250            0 
Loop time of 0.233037 on 4 procs for 1000 steps with 3219 atoms

timestep 10800
fix_modify k1 demflag 0
fix_modify d2 demflag 0
fix_modify d1 demflag 0
Step CPU Atoms c_myNtypes[2] c_myNtypes[3] c_myNtypes[4] c_myNtypes[5] c_myNtypes[6] 
   52052            0     3219         1252         1468          249          250            0 
number of iterations: 3000 
   52053   0.29858068     3274         1271         1504          249          250            0 
Loop time of 0.298601 on 4 procs for 1 steps with 3274 atoms

fix_modify k1 demflag 1
fix_modify d2 demflag 1
fix_modify d1 demflag 1
delete_atoms region reg3
Deleted 0 atoms, new total = 3274
timestep 1e-3
run 1000 pre no post no
Step CPU Atoms c_myNtypes[2] c_myNtypes[3] c_myNtypes[4] c_myNtypes[5] c_myNtypes[6] 
   52053            0     3274         1271         1504          249          250            0 
   53053   0.23406251     3274         1271         1504          249          250            0 
Loop time of 0.234087 on 4 procs for 1000 steps with 3274 atoms

timestep 10800
fix_modify k1 demflag 0
fix_modify d2 demflag 0
fix_modify d1 demflag 0
Step CPU Atoms c_myNtypes[2] c_myNtypes[3] c_myNtypes[4] c_myNtypes[5] c_myNtypes[6] 
   53053            0     3274         1271         1504          249          250            0 
number of iterations: 3000 
   53054   0.29347007     3318         1287         1532          249          250            0 
Loop time of 0.293493 on 4 procs for 1 steps with 3318 atoms

fix_modify k1 demflag 1
fix_modify d2 demflag 1
fix_modify d1 demflag 1
delete_atoms region reg3
Deleted 0 atoms, new total = 3318
timestep 1e-3
run 1000 pre no post no
Step CPU Atoms c_myNtypes[2] c_myNtypes[3] c_myNtypes[4] c_myNtypes[5] c_myNtypes[6] 
   53054            0     3318         1287         1532          249          250            0 
   54054   0.21997092     3318         1287         1532          249          250            0 
Loop time of 0.219994 on 4 procs for 1000 steps with 3318 atoms

timestep 10800
fix_modify k1 demflag 0
fix_modify d2 demflag 0
fix_modify d1 demflag 0
Step CPU Atoms c_myNtypes[2] c_myNtypes[3] c_myNtypes[4] c_myNtypes[5] c_myNtypes[6] 
   54054            0     3318         1287         1532          249          250            0 
number of iterations: 3000 
   54055   0.29508247     3367         1304         1564          249          250            0 
Loop time of 0.295104 on 4 procs for 1 steps with 3367 atoms

fix_modify k1 demflag 1
fix_modify d2 demflag 1
fix_modify d1 demflag 1
delete_atoms region reg3
Deleted 0 atoms, new total = 3367
timestep 1e-3
run 1000 pre no post no
Step CPU Atoms c_myNtypes[2] c_myNtypes[3] c_myNtypes[4] c_myNtypes[5] c_myNtypes[6] 
   54055            0     3367         1304         1564          249          250            0 
   55055   0.22820999     3367         1304         1564          249          250            0 
Loop time of 0.228236 on 4 procs for 1000 steps with 3367 atoms

timestep 10800
fix_modify k1 demflag 0
fix_modify d2 demflag 0
fix_modify d1 demflag 0
Step CPU Atoms c_myNtypes[2] c_myNtypes[3] c_myNtypes[4] c_myNtypes[5] c_myNtypes[6] 
   55055            0     3367         1304         1564          249          250            0 
number of iterations: 3000 
   55056   0.30038174     3417         1316         1602          249          250            0 
Loop time of 0.300403 on 4 procs for 1 steps with 3417 atoms

fix_modify k1 demflag 1
fix_modify d2 demflag 1
fix_modify d1 demflag 1
delete_atoms region reg3
Deleted 0 atoms, new total = 3417
timestep 1e-3
run 1000 pre no post no
Step CPU Atoms c_myNtypes[2] c_myNtypes[3] c_myNtypes[4] c_myNtypes[5] c_myNtypes[6] 
   55056            0     3417         1316         1602          249          250            0 
   56056   0.22410019     3417         1316         1602          249          250            0 
Loop time of 0.224127 on 4 procs for 1000 steps with 3417 atoms

timestep 10800
fix_modify k1 demflag 0
fix_modify d2 demflag 0
fix_modify d1 demflag 0
Step CPU Atoms c_myNtypes[2] c_myNtypes[3] c_myNtypes[4] c_myNtypes[5] c_myNtypes[6] 
   56056            0     3417         1316         1602          249          250            0 
number of iterations: 3000 
   56057   0.29825311     3479         1337         1643          249          250            0 
Loop time of 0.298274 on 4 procs for 1 steps with 3479 atoms

fix_modify k1 demflag 1
fix_modify d2 demflag 1
fix_modify d1 demflag 1
delete_atoms region reg3
Deleted 0 atoms, new total = 3479
timestep 1e-3
run 1000 pre no post no
Step CPU Atoms c_myNtypes[2] c_myNtypes[3] c_myNtypes[4] c_myNtypes[5] c_myNtypes[6] 
   56057            0     3479         1337         1643          249          250            0 
   57057   0.22927234     3479         1337         1643          249          250            0 
Loop time of 0.229297 on 4 procs for 1000 steps with 3479 atoms

timestep 10800
fix_modify k1 demflag 0
fix_modify d2 demflag 0
fix_modify d1 demflag 0
Step CPU Atoms c_myNtypes[2] c_myNtypes[3] c_myNtypes[4] c_myNtypes[5] c_myNtypes[6] 
   57057            0     3479         1337         1643          249          250            0 
number of iterations: 3000 
   57058   0.30009211     3540         1358         1683          249          250            0 
Loop time of 0.300114 on 4 procs for 1 steps with 3540 atoms

fix_modify k1 demflag 1
fix_modify d2 demflag 1
fix_modify d1 demflag 1
delete_atoms region reg3
Deleted 0 atoms, new total = 3540
timestep 1e-3
run 1000 pre no post no
Step CPU Atoms c_myNtypes[2] c_myNtypes[3] c_myNtypes[4] c_myNtypes[5] c_myNtypes[6] 
   57058            0     3540         1358         1683          249          250            0 
   58058    0.2480158     3540         1358         1683          249          250            0 
Loop time of 0.248045 on 4 procs for 1000 steps with 3540 atoms

timestep 10800
fix_modify k1 demflag 0
fix_modify d2 demflag 0
fix_modify d1 demflag 0
Step CPU Atoms c_myNtypes[2] c_myNtypes[3] c_myNtypes[4] c_myNtypes[5] c_myNtypes[6] 
   58058            0     3540         1358         1683          249          250            0 
number of iterations: 3000 
   58059     0.296909     3599         1369         1731          249          250            0 
Loop time of 0.29693 on 4 procs for 1 steps with 3599 atoms

fix_modify k1 demflag 1
fix_modify d2 demflag 1
fix_modify d1 demflag 1
delete_atoms region reg3
Deleted 0 atoms, new total = 3599
timestep 1e-3
run 1000 pre no post no
Step CPU Atoms c_myNtypes[2] c_myNtypes[3] c_myNtypes[4] c_myNtypes[5] c_myNtypes[6] 
   58059            0     3599         1369         1731          249          250            0 
   59059   0.24964916     3599         1369         1731          249          250            0 
Loop time of 0.249674 on 4 procs for 1000 steps with 3599 atoms

timestep 10800
fix_modify k1 demflag 0
fix_modify d2 demflag 0
fix_modify d1 demflag 0
Step CPU Atoms c_myNtypes[2] c_myNtypes[3] c_myNtypes[4] c_myNtypes[5] c_myNtypes[6] 
   59059            0     3599         1369         1731          249          250            0 
number of iterations: 3000 
   59060   0.30274793     3663         1390         1774          249          250            0 
Loop time of 0.302769 on 4 procs for 1 steps with 3663 atoms

fix_modify k1 demflag 1
fix_modify d2 demflag 1
fix_modify d1 demflag 1
delete_atoms region reg3
Deleted 0 atoms, new total = 3663
timestep 1e-3
run 1000 pre no post no
Step CPU Atoms c_myNtypes[2] c_myNtypes[3] c_myNtypes[4] c_myNtypes[5] c_myNtypes[6] 
   59060            0     3663         1390         1774          249          250            0 
   60060   0.25523762     3663         1390         1774          249          250            0 
Loop time of 0.255263 on 4 procs for 1000 steps with 3663 atoms

timestep 10800
fix_modify k1 demflag 0
fix_modify d2 demflag 0
fix_modify d1 demflag 0
Step CPU Atoms c_myNtypes[2] c_myNtypes[3] c_myNtypes[4] c_myNtypes[5] c_myNtypes[6] 
   60060            0     3663         1390         1774          249          250            0 
number of iterations: 3000 
   60061   0.30029847     3719         1412         1808          249          250            0 
Loop time of 0.300319 on 4 procs for 1 steps with 3719 atoms

fix_modify k1 demflag 1
fix_modify d2 demflag 1
fix_modify d1 demflag 1
delete_atoms region reg3
Deleted 0 atoms, new total = 3719
timestep 1e-3
run 1000 pre no post no
Step CPU Atoms c_myNtypes[2] c_myNtypes[3] c_myNtypes[4] c_myNtypes[5] c_myNtypes[6] 
   60061            0     3719         1412         1808          249          250            0 
   61061   0.25633348     3719         1412         1808          249          250            0 
Loop time of 0.256359 on 4 procs for 1000 steps with 3719 atoms

timestep 10800
fix_modify k1 demflag 0
fix_modify d2 demflag 0
fix_modify d1 demflag 0
Step CPU Atoms c_myNtypes[2] c_myNtypes[3] c_myNtypes[4] c_myNtypes[5] c_myNtypes[6] 
   61061            0     3719         1412         1808          249          250            0 
number of iterations: 3000 
   61062   0.30406765     3783         1436         1848          249          250            0 
Loop time of 0.304092 on 4 procs for 1 steps with 3783 atoms

fix_modify k1 demflag 1
fix_modify d2 demflag 1
fix_modify d1 demflag 1
delete_atoms region reg3
Deleted 0 atoms, new total = 3783
timestep 1e-3
run 1000 pre no post no
Step CPU Atoms c_myNtypes[2] c_myNtypes[3] c_myNtypes[4] c_myNtypes[5] c_myNtypes[6] 
   61062            0     3783         1436         1848          249          250            0 
   62062   0.26922271     3783         1436         1848          249          250            0 
Loop time of 0.269249 on 4 procs for 1000 steps with 3783 atoms

timestep 10800
fix_modify k1 demflag 0
fix_modify d2 demflag 0
fix_modify d1 demflag 0
Step CPU Atoms c_myNtypes[2] c_myNtypes[3] c_myNtypes[4] c_myNtypes[5] c_myNtypes[6] 
   62062            0     3783         1436         1848          249          250            0 
number of iterations: 3000 
   62063   0.29473297     3834         1449         1886          249          250            0 
Loop time of 0.294752 on 4 procs for 1 steps with 3834 atoms

fix_modify k1 demflag 1
fix_modify d2 demflag 1
fix_modify d1 demflag 1
delete_atoms region reg3
Deleted 0 atoms, new total = 3834
timestep 1e-3
run 1000 pre no post no
Step CPU Atoms c_myNtypes[2] c_myNtypes[3] c_myNtypes[4] c_myNtypes[5] c_myNtypes[6] 
   62063            0     3834         1449         1886          249          250            0 
   63063   0.26344608     3834         1449         1886          249          250            0 
Loop time of 0.263477 on 4 procs for 1000 steps with 3834 atoms

timestep 10800
fix_modify k1 demflag 0
fix_modify d2 demflag 0
fix_modify d1 demflag 0
Step CPU Atoms c_myNtypes[2] c_myNtypes[3] c_myNtypes[4] c_myNtypes[5] c_myNtypes[6] 
   63063            0     3834         1449         1886          249          250            0 
number of iterations: 3000 
   63064   0.29963313     3901         1472         1930          249          250            0 
Loop time of 0.299655 on 4 procs for 1 steps with 3901 atoms

fix_modify k1 demflag 1
fix_modify d2 demflag 1
fix_modify d1 demflag 1
delete_atoms region reg3
Deleted 0 atoms, new total = 3901
timestep 1e-3
run 1000 pre no post no
Step CPU Atoms c_myNtypes[2] c_myNtypes[3] c_myNtypes[4] c_myNtypes[5] c_myNtypes[6] 
   63064            0     3901         1472         1930          249          250            0 
   64064   0.26363608     3901         1472         1930          249          250            0 
Loop time of 0.26366 on 4 procs for 1000 steps with 3901 atoms

timestep 10800
fix_modify k1 demflag 0
fix_modify d2 demflag 0
fix_modify d1 demflag 0
Step CPU Atoms c_myNtypes[2] c_myNtypes[3] c_myNtypes[4] c_myNtypes[5] c_myNtypes[6] 
   64064            0     3901         1472         1930          249          250            0 
number of iterations: 3000 
   64065   0.29751486     3960         1492         1969          249          250            0 
Loop time of 0.297533 on 4 procs for 1 steps with 3960 atoms

fix_modify k1 demflag 1
fix_modify d2 demflag 1
fix_modify d1 demflag 1
delete_atoms region reg3
Deleted 0 atoms, new total = 3960
timestep 1e-3
run 1000 pre no post no
Step CPU Atoms c_myNtypes[2] c_myNtypes[3] c_myNtypes[4] c_myNtypes[5] c_myNtypes[6] 
   64065            0     3960         1492         1969          249          250            0 
   65065   0.26712596     3960         1492         1969          249          250            0 
Loop time of 0.267151 on 4 procs for 1000 steps with 3960 atoms

timestep 10800
fix_modify k1 demflag 0
fix_modify d2 demflag 0
fix_modify d1 demflag 0
Step CPU Atoms c_myNtypes[2] c_myNtypes[3] c_myNtypes[4] c_myNtypes[5] c_myNtypes[6] 
   65065            0     3960         1492         1969          249          250            0 
number of iterations: 3000 
   65066   0.29908934     4029         1515         2015          249          250            0 
Loop time of 0.299121 on 4 procs for 1 steps with 4029 atoms

fix_modify k1 demflag 1
fix_modify d2 demflag 1
fix_modify d1 demflag 1
delete_atoms region reg3
Deleted 0 atoms, new total = 4029
timestep 1e-3
run 1000 pre no post no
Step CPU Atoms c_myNtypes[2] c_myNtypes[3] c_myNtypes[4] c_myNtypes[5] c_myNtypes[6] 
   65066            0     4029         1515         2015          249          250            0 
   66066    0.2670028     4029         1515         2015          249          250            0 
Loop time of 0.267029 on 4 procs for 1000 steps with 4029 atoms

timestep 10800
fix_modify k1 demflag 0
fix_modify d2 demflag 0
fix_modify d1 demflag 0
Step CPU Atoms c_myNtypes[2] c_myNtypes[3] c_myNtypes[4] c_myNtypes[5] c_myNtypes[6] 
   66066            0     4029         1515         2015          249          250            0 
number of iterations: 3000 
   66067   0.30115452     4064         1531         2034          249          250            0 
Loop time of 0.301182 on 4 procs for 1 steps with 4064 atoms

fix_modify k1 demflag 1
fix_modify d2 demflag 1
fix_modify d1 demflag 1
delete_atoms region reg3
Deleted 0 atoms, new total = 4064
timestep 1e-3
run 1000 pre no post no
Step CPU Atoms c_myNtypes[2] c_myNtypes[3] c_myNtypes[4] c_myNtypes[5] c_myNtypes[6] 
   66067            0     4064         1531         2034          249          250            0 
   67067   0.26364296     4064         1531         2034          249          250            0 
Loop time of 0.263667 on 4 procs for 1000 steps with 4064 atoms

timestep 10800
fix_modify k1 demflag 0
fix_modify d2 demflag 0
fix_modify d1 demflag 0
Step CPU Atoms c_myNtypes[2] c_myNtypes[3] c_myNtypes[4] c_myNtypes[5] c_myNtypes[6] 
   67067            0     4064         1531         2034          249          250            0 
number of iterations: 3000 
   67068   0.30072314     4113         1552         2062          249          250            0 
Loop time of 0.300744 on 4 procs for 1 steps with 4113 atoms

fix_modify k1 demflag 1
fix_modify d2 demflag 1
fix_modify d1 demflag 1
delete_atoms region reg3
Deleted 0 atoms, new total = 4113
timestep 1e-3
run 1000 pre no post no
Step CPU Atoms c_myNtypes[2] c_myNtypes[3] c_myNtypes[4] c_myNtypes[5] c_myNtypes[6] 
   67068            0     4113         1552         2062          249          250            0 
   68068   0.27284542     4113         1552         2062          249          250            0 
Loop time of 0.27287 on 4 procs for 1000 steps with 4113 atoms

timestep 10800
fix_modify k1 demflag 0
fix_modify d2 demflag 0
fix_modify d1 demflag 0
Step CPU Atoms c_myNtypes[2] c_myNtypes[3] c_myNtypes[4] c_myNtypes[5] c_myNtypes[6] 
   68068            0     4113         1552         2062          249          250            0 
number of iterations: 3000 
   68069   0.30014119     4173         1572         2102          249          250            0 
Loop time of 0.300168 on 4 procs for 1 steps with 4173 atoms

fix_modify k1 demflag 1
fix_modify d2 demflag 1
fix_modify d1 demflag 1
delete_atoms region reg3
Deleted 0 atoms, new total = 4173
timestep 1e-3
run 1000 pre no post no
Step CPU Atoms c_myNtypes[2] c_myNtypes[3] c_myNtypes[4] c_myNtypes[5] c_myNtypes[6] 
   68069            0     4173         1572         2102          249          250            0 
   69069   0.27238136     4173         1572         2102          249          250            0 
Loop time of 0.272414 on 4 procs for 1000 steps with 4173 atoms

timestep 10800
fix_modify k1 demflag 0
fix_modify d2 demflag 0
fix_modify d1 demflag 0
Step CPU Atoms c_myNtypes[2] c_myNtypes[3] c_myNtypes[4] c_myNtypes[5] c_myNtypes[6] 
   69069            0     4173         1572         2102          249          250            0 
number of iterations: 3000 
   69070   0.30557008     4225         1592         2134          249          250            0 
Loop time of 0.305591 on 4 procs for 1 steps with 4225 atoms

fix_modify k1 demflag 1
fix_modify d2 demflag 1
fix_modify d1 demflag 1
delete_atoms region reg3
Deleted 0 atoms, new total = 4225
timestep 1e-3
run 1000 pre no post no
Step CPU Atoms c_myNtypes[2] c_myNtypes[3] c_myNtypes[4] c_myNtypes[5] c_myNtypes[6] 
   69070            0     4225         1592         2134          249          250            0 
   70070   0.28361436     4225         1592         2134          249          250            0 
Loop time of 0.28364 on 4 procs for 1000 steps with 4225 atoms

timestep 10800
fix_modify k1 demflag 0
fix_modify d2 demflag 0
fix_modify d1 demflag 0
Step CPU Atoms c_myNtypes[2] c_myNtypes[3] c_myNtypes[4] c_myNtypes[5] c_myNtypes[6] 
   70070            0     4225         1592         2134          249          250            0 
number of iterations: 3000 
   70071   0.30317047     4277         1615         2163          249          250            0 
Loop time of 0.303192 on 4 procs for 1 steps with 4277 atoms

fix_modify k1 demflag 1
fix_modify d2 demflag 1
fix_modify d1 demflag 1
delete_atoms region reg3
Deleted 0 atoms, new total = 4277
timestep 1e-3
run 1000 pre no post no
Step CPU Atoms c_myNtypes[2] c_myNtypes[3] c_myNtypes[4] c_myNtypes[5] c_myNtypes[6] 
   70071            0     4277         1615         2163          249          250            0 
   71071   0.28985296     4277         1615         2163          249          250            0 
Loop time of 0.289877 on 4 procs for 1000 steps with 4277 atoms

timestep 10800
fix_modify k1 demflag 0
fix_modify d2 demflag 0
fix_modify d1 demflag 0
Step CPU Atoms c_myNtypes[2] c_myNtypes[3] c_myNtypes[4] c_myNtypes[5] c_myNtypes[6] 
   71071            0     4277         1615         2163          249          250            0 
number of iterations: 3000 
   71072    0.3048592     4333         1633         2201          249          250            0 
Loop time of 0.304883 on 4 procs for 1 steps with 4333 atoms

fix_modify k1 demflag 1
fix_modify d2 demflag 1
fix_modify d1 demflag 1
delete_atoms region reg3
Deleted 0 atoms, new total = 4333
timestep 1e-3
run 1000 pre no post no
Step CPU Atoms c_myNtypes[2] c_myNtypes[3] c_myNtypes[4] c_myNtypes[5] c_myNtypes[6] 
   71072            0     4333         1633         2201          249          250            0 
   72072   0.30452214     4333         1633         2201          249          250            0 
Loop time of 0.304546 on 4 procs for 1000 steps with 4333 atoms

timestep 10800
fix_modify k1 demflag 0
fix_modify d2 demflag 0
fix_modify d1 demflag 0
Step CPU Atoms c_myNtypes[2] c_myNtypes[3] c_myNtypes[4] c_myNtypes[5] c_myNtypes[6] 
   72072            0     4333         1633         2201          249          250            0 
number of iterations: 3000 
   72073   0.31355677     4382         1651         2232          249          250            0 
Loop time of 0.31358 on 4 procs for 1 steps with 4382 atoms

fix_modify k1 demflag 1
fix_modify d2 demflag 1
fix_modify d1 demflag 1
delete_atoms region reg3
Deleted 0 atoms, new total = 4382
timestep 1e-3
run 1000 pre no post no
Step CPU Atoms c_myNtypes[2] c_myNtypes[3] c_myNtypes[4] c_myNtypes[5] c_myNtypes[6] 
   72073            0     4382         1651         2232          249          250            0 
   73073   0.28316967     4382         1651         2232          249          250            0 
Loop time of 0.283194 on 4 procs for 1000 steps with 4382 atoms

timestep 10800
fix_modify k1 demflag 0
fix_modify d2 demflag 0
fix_modify d1 demflag 0
Step CPU Atoms c_myNtypes[2] c_myNtypes[3] c_myNtypes[4] c_myNtypes[5] c_myNtypes[6] 
   73073            0     4382         1651         2232          249          250            0 
number of iterations: 3000 
   73074   0.30473219     4441         1674         2268          249          250            0 
Loop time of 0.304752 on 4 procs for 1 steps with 4441 atoms

fix_modify k1 demflag 1
fix_modify d2 demflag 1
fix_modify d1 demflag 1
delete_atoms region reg3
Deleted 0 atoms, new total = 4441
timestep 1e-3
run 1000 pre no post no
Step CPU Atoms c_myNtypes[2] c_myNtypes[3] c_myNtypes[4] c_myNtypes[5] c_myNtypes[6] 
   73074            0     4441         1674         2268          249          250            0 
   74074   0.29335677     4441         1674         2268          249          250            0 
Loop time of 0.293381 on 4 procs for 1000 steps with 4441 atoms

timestep 10800
fix_modify k1 demflag 0
fix_modify d2 demflag 0
fix_modify d1 demflag 0
Step CPU Atoms c_myNtypes[2] c_myNtypes[3] c_myNtypes[4] c_myNtypes[5] c_myNtypes[6] 
   74074            0     4441         1674         2268          249          250            0 
number of iterations: 3000 
   74075   0.30540533     4493         1696         2298          249          250            0 
Loop time of 0.305427 on 4 procs for 1 steps with 4493 atoms

fix_modify k1 demflag 1
fix_modify d2 demflag 1
fix_modify d1 demflag 1
delete_atoms region reg3
Deleted 0 atoms, new total = 4493
timestep 1e-3
run 1000 pre no post no
Step CPU Atoms c_myNtypes[2] c_myNtypes[3] c_myNtypes[4] c_myNtypes[5] c_myNtypes[6] 
   74075            0     4493         1696         2298          249          250            0 
   75075   0.29136164     4493         1696         2298          249          250            0 
Loop time of 0.291388 on 4 procs for 1000 steps with 4493 atoms

timestep 10800
fix_modify k1 demflag 0
fix_modify d2 demflag 0
fix_modify d1 demflag 0
Step CPU Atoms c_myNtypes[2] c_myNtypes[3] c_myNtypes[4] c_myNtypes[5] c_myNtypes[6] 
   75075            0     4493         1696         2298          249          250            0 
number of iterations: 3000 
   75076   0.31092778     4540         1715         2326          249          250            0 
Loop time of 0.31095 on 4 procs for 1 steps with 4540 atoms

fix_modify k1 demflag 1
fix_modify d2 demflag 1
fix_modify d1 demflag 1
delete_atoms region reg3
Deleted 0 atoms, new total = 4540
timestep 1e-3
run 1000 pre no post no
Step CPU Atoms c_myNtypes[2] c_myNtypes[3] c_myNtypes[4] c_myNtypes[5] c_myNtypes[6] 
   75076            0     4540         1715         2326          249          250            0 
   76076   0.30780771     4540         1715         2326          249          250            0 
Loop time of 0.307832 on 4 procs for 1000 steps with 4540 atoms

timestep 10800
fix_modify k1 demflag 0
fix_modify d2 demflag 0
fix_modify d1 demflag 0
Step CPU Atoms c_myNtypes[2] c_myNtypes[3] c_myNtypes[4] c_myNtypes[5] c_myNtypes[6] 
   76076            0     4540         1715         2326          249          250            0 
number of iterations: 3000 
   76077   0.32610285     4592         1734         2359          249          250            0 
Loop time of 0.326124 on 4 procs for 1 steps with 4592 atoms

fix_modify k1 demflag 1
fix_modify d2 demflag 1
fix_modify d1 demflag 1
delete_atoms region reg3
Deleted 0 atoms, new total = 4592
timestep 1e-3
run 1000 pre no post no
Step CPU Atoms c_myNtypes[2] c_myNtypes[3] c_myNtypes[4] c_myNtypes[5] c_myNtypes[6] 
   76077            0     4592         1734         2359          249          250            0 
   77077   0.31274137     4592         1734         2359          249          250            0 
Loop time of 0.312767 on 4 procs for 1000 steps with 4592 atoms

timestep 10800
fix_modify k1 demflag 0
fix_modify d2 demflag 0
fix_modify d1 demflag 0
Step CPU Atoms c_myNtypes[2] c_myNtypes[3] c_myNtypes[4] c_myNtypes[5] c_myNtypes[6] 
   77077            0     4592         1734         2359          249          250            0 
number of iterations: 3000 
   77078   0.32410679     4642         1752         2391          249          250            0 
Loop time of 0.324129 on 4 procs for 1 steps with 4642 atoms

fix_modify k1 demflag 1
fix_modify d2 demflag 1
fix_modify d1 demflag 1
delete_atoms region reg3
Deleted 0 atoms, new total = 4642
timestep 1e-3
run 1000 pre no post no
Step CPU Atoms c_myNtypes[2] c_myNtypes[3] c_myNtypes[4] c_myNtypes[5] c_myNtypes[6] 
   77078            0     4642         1752         2391          249          250            0 
   78078   0.30811194     4642         1752         2391          249          250            0 
Loop time of 0.308144 on 4 procs for 1000 steps with 4642 atoms

timestep 10800
[...]
fix_modify d2 demflag 1
fix_modify d1 demflag 1
delete_atoms region reg3
Deleted 0 atoms, new total = 22843
timestep 1e-3
run 1000 pre no post no
Step CPU Atoms c_myNtypes[2] c_myNtypes[3] c_myNtypes[4] c_myNtypes[5] c_myNtypes[6] 
  780781            0    22843         2897        10630            0         4610         4706 
  781781    3.6138338    22843         2897        10630            0         4610         4706 
Loop time of 3.61387 on 4 procs for 1000 steps with 22843 atoms

timestep 10800
fix_modify k1 demflag 0
fix_modify d2 demflag 0
fix_modify d1 demflag 0
Step CPU Atoms c_myNtypes[2] c_myNtypes[3] c_myNtypes[4] c_myNtypes[5] c_myNtypes[6] 
  781781            0    22843         2897        10630            0         4610         4706 
number of iterations: 3000 
  781782   0.62191316    22891         2898        10638            0         4638         4717 
Loop time of 0.621942 on 4 procs for 1 steps with 22891 atoms

fix_modify k1 demflag 1
fix_modify d2 demflag 1
fix_modify d1 demflag 1
delete_atoms region reg3
Deleted 0 atoms, new total = 22891
timestep 1e-3
run 1000 pre no post no
Step CPU Atoms c_myNtypes[2] c_myNtypes[3] c_myNtypes[4] c_myNtypes[5] c_myNtypes[6] 
  781782            0    22891         2898        10638            0         4638         4717 
  782782    2.1483505    22891         2898        10638            0         4638         4717 
Loop time of 2.14839 on 4 procs for 1000 steps with 22891 atoms

timestep 10800
fix_modify k1 demflag 0
fix_modify d2 demflag 0
fix_modify d1 demflag 0
Step CPU Atoms c_myNtypes[2] c_myNtypes[3] c_myNtypes[4] c_myNtypes[5] c_myNtypes[6] 
  782782            0    22891         2898        10638            0         4638         4717 
number of iterations: 3000 
  782783    0.6131096    22948         2898        10655            0         4664         4731 
Loop time of 0.613138 on 4 procs for 1 steps with 22948 atoms

fix_modify k1 demflag 1
fix_modify d2 demflag 1
fix_modify d1 demflag 1
delete_atoms region reg3
Deleted 0 atoms, new total = 22948
timestep 1e-3
run 1000 pre no post no
Step CPU Atoms c_myNtypes[2] c_myNtypes[3] c_myNtypes[4] c_myNtypes[5] c_myNtypes[6] 
  782783            0    22948         2898        10655            0         4664         4731 
  783783    2.1620264    22948         2898        10655            0         4664         4731 
Loop time of 2.16207 on 4 procs for 1000 steps with 22948 atoms

timestep 10800
fix_modify k1 demflag 0
fix_modify d2 demflag 0
fix_modify d1 demflag 0
Step CPU Atoms c_myNtypes[2] c_myNtypes[3] c_myNtypes[4] c_myNtypes[5] c_myNtypes[6] 
  783783            0    22948         2898        10655            0         4664         4731 
number of iterations: 3000 
  783784   0.59355069    23017         2899        10679            0         4691         4748 
Loop time of 0.593586 on 4 procs for 1 steps with 23017 atoms

fix_modify k1 demflag 1
fix_modify d2 demflag 1
fix_modify d1 demflag 1
delete_atoms region reg3
Deleted 0 atoms, new total = 23017
timestep 1e-3
run 1000 pre no post no
Step CPU Atoms c_myNtypes[2] c_myNtypes[3] c_myNtypes[4] c_myNtypes[5] c_myNtypes[6] 
  783784            0    23017         2899        10679            0         4691         4748 
  784784    2.1815884    23017         2899        10679            0         4691         4748 
Loop time of 2.18162 on 4 procs for 1000 steps with 23017 atoms

timestep 10800
fix_modify k1 demflag 0
fix_modify d2 demflag 0
fix_modify d1 demflag 0
Step CPU Atoms c_myNtypes[2] c_myNtypes[3] c_myNtypes[4] c_myNtypes[5] c_myNtypes[6] 
  784784            0    23017         2899        10679            0         4691         4748 
number of iterations: 3000 
  784785   0.74782518    23065         2899        10690            0         4715         4761 
Loop time of 0.747851 on 4 procs for 1 steps with 23065 atoms

fix_modify k1 demflag 1
fix_modify d2 demflag 1
fix_modify d1 demflag 1
delete_atoms region reg3
Deleted 0 atoms, new total = 23065
timestep 1e-3
run 1000 pre no post no
Step CPU Atoms c_myNtypes[2] c_myNtypes[3] c_myNtypes[4] c_myNtypes[5] c_myNtypes[6] 
  784785            0    23065         2899        10690            0         4715         4761 
  785785    2.0720689    23065         2899        10690            0         4715         4761 
Loop time of 2.0721 on 4 procs for 1000 steps with 23065 atoms

timestep 10800
fix_modify k1 demflag 0
fix_modify d2 demflag 0
fix_modify d1 demflag 0
Step CPU Atoms c_myNtypes[2] c_myNtypes[3] c_myNtypes[4] c_myNtypes[5] c_myNtypes[6] 
  785785            0    23065         2899        10690            0         4715         4761 
number of iterations: 3000 
  785786   0.55911864    23111         2900        10699            0         4734         4778 
Loop time of 0.559146 on 4 procs for 1 steps with 23111 atoms

fix_modify k1 demflag 1
fix_modify d2 demflag 1
fix_modify d1 demflag 1
delete_atoms region reg3
Deleted 0 atoms, new total = 23111
timestep 1e-3
run 1000 pre no post no
Step CPU Atoms c_myNtypes[2] c_myNtypes[3] c_myNtypes[4] c_myNtypes[5] c_myNtypes[6] 
  785786            0    23111         2900        10699            0         4734         4778 
  786786    1.9929412    23111         2900        10699            0         4734         4778 
Loop time of 1.99297 on 4 procs for 1000 steps with 23111 atoms

timestep 10800
fix_modify k1 demflag 0
fix_modify d2 demflag 0
fix_modify d1 demflag 0
Step CPU Atoms c_myNtypes[2] c_myNtypes[3] c_myNtypes[4] c_myNtypes[5] c_myNtypes[6] 
  786786            0    23111         2900        10699            0         4734         4778 
number of iterations: 3000 
  786787   0.55567166    23158         2901        10696            0         4759         4802 
Loop time of 0.5557 on 4 procs for 1 steps with 23158 atoms

fix_modify k1 demflag 1
fix_modify d2 demflag 1
fix_modify d1 demflag 1
delete_atoms region reg3
Deleted 0 atoms, new total = 23158
timestep 1e-3
run 1000 pre no post no
Step CPU Atoms c_myNtypes[2] c_myNtypes[3] c_myNtypes[4] c_myNtypes[5] c_myNtypes[6] 
  786787            0    23158         2901        10696            0         4759         4802 
  787787    1.9772216    23158         2901        10696            0         4759         4802 
Loop time of 1.97727 on 4 procs for 1000 steps with 23158 atoms

timestep 10800
fix_modify k1 demflag 0
fix_modify d2 demflag 0
fix_modify d1 demflag 0
Step CPU Atoms c_myNtypes[2] c_myNtypes[3] c_myNtypes[4] c_myNtypes[5] c_myNtypes[6] 
  787787            0    23158         2901        10696            0         4759         4802 
number of iterations: 3000 
  787788   0.55816254    23215         2902        10709            0         4787         4817 
Loop time of 0.558191 on 4 procs for 1 steps with 23215 atoms

fix_modify k1 demflag 1
fix_modify d2 demflag 1
fix_modify d1 demflag 1
delete_atoms region reg3
Deleted 0 atoms, new total = 23215
timestep 1e-3
run 1000 pre no post no
Step CPU Atoms c_myNtypes[2] c_myNtypes[3] c_myNtypes[4] c_myNtypes[5] c_myNtypes[6] 
  787788            0    23215         2902        10709            0         4787         4817 
  788788    2.0081821    23215         2902        10709            0         4787         4817 
Loop time of 2.00822 on 4 procs for 1000 steps with 23215 atoms

timestep 10800
fix_modify k1 demflag 0
fix_modify d2 demflag 0
fix_modify d1 demflag 0
Step CPU Atoms c_myNtypes[2] c_myNtypes[3] c_myNtypes[4] c_myNtypes[5] c_myNtypes[6] 
  788788            0    23215         2902        10709            0         4787         4817 
number of iterations: 3000 
  788789   0.56786051    23269         2902        10723            0         4811         4833 
Loop time of 0.567888 on 4 procs for 1 steps with 23269 atoms

fix_modify k1 demflag 1
fix_modify d2 demflag 1
fix_modify d1 demflag 1
delete_atoms region reg3
Deleted 0 atoms, new total = 23269
timestep 1e-3
run 1000 pre no post no
Step CPU Atoms c_myNtypes[2] c_myNtypes[3] c_myNtypes[4] c_myNtypes[5] c_myNtypes[6] 
  788789            0    23269         2902        10723            0         4811         4833 
  789789    2.4695161    23269         2902        10723            0         4811         4833 
Loop time of 2.46956 on 4 procs for 1000 steps with 23269 atoms

timestep 10800
fix_modify k1 demflag 0
fix_modify d2 demflag 0
fix_modify d1 demflag 0
Step CPU Atoms c_myNtypes[2] c_myNtypes[3] c_myNtypes[4] c_myNtypes[5] c_myNtypes[6] 
  789789            0    23269         2902        10723            0         4811         4833 
number of iterations: 3000 
  789790   0.59207543    23322         2904        10734            0         4834         4850 
Loop time of 0.592104 on 4 procs for 1 steps with 23322 atoms

fix_modify k1 demflag 1
fix_modify d2 demflag 1
fix_modify d1 demflag 1
delete_atoms region reg3
Deleted 0 atoms, new total = 23322
timestep 1e-3
run 1000 pre no post no
Step CPU Atoms c_myNtypes[2] c_myNtypes[3] c_myNtypes[4] c_myNtypes[5] c_myNtypes[6] 
  789790            0    23322         2904        10734            0         4834         4850 
  790790    2.9648244    23322         2904        10734            0         4834         4850 
Loop time of 2.96488 on 4 procs for 1000 steps with 23322 atoms

timestep 10800
fix_modify k1 demflag 0
fix_modify d2 demflag 0
fix_modify d1 demflag 0
Step CPU Atoms c_myNtypes[2] c_myNtypes[3] c_myNtypes[4] c_myNtypes[5] c_myNtypes[6] 
  790790            0    23322         2904        10734            0         4834         4850 
number of iterations: 3000 
  790791    1.0447865    23375         2907        10741            0         4860         4867 
Loop time of 1.04482 on 4 procs for 1 steps with 23375 atoms

fix_modify k1 demflag 1
fix_modify d2 demflag 1
fix_modify d1 demflag 1
delete_atoms region reg3
Deleted 0 atoms, new total = 23375
timestep 1e-3
run 1000 pre no post no
Step CPU Atoms c_myNtypes[2] c_myNtypes[3] c_myNtypes[4] c_myNtypes[5] c_myNtypes[6] 
  790791            0    23375         2907        10741            0         4860         4867 
  791791    3.6599945    23375         2907        10741            0         4860         4867 
Loop time of 3.66003 on 4 procs for 1000 steps with 23375 atoms

timestep 10800
fix_modify k1 demflag 0
fix_modify d2 demflag 0
fix_modify d1 demflag 0
Step CPU Atoms c_myNtypes[2] c_myNtypes[3] c_myNtypes[4] c_myNtypes[5] c_myNtypes[6] 
  791791            0    23375         2907        10741            0         4860         4867 
number of iterations: 3000 
  791792    1.0386234    23423         2907        10749            0         4890         4877 
Loop time of 1.03866 on 4 procs for 1 steps with 23423 atoms

fix_modify k1 demflag 1
fix_modify d2 demflag 1
fix_modify d1 demflag 1
delete_atoms region reg3
Deleted 0 atoms, new total = 23423
timestep 1e-3
run 1000 pre no post no
Step CPU Atoms c_myNtypes[2] c_myNtypes[3] c_myNtypes[4] c_myNtypes[5] c_myNtypes[6] 
  791792            0    23423         2907        10749            0         4890         4877 
  792792    3.3540636    23423         2907        10749            0         4890         4877 
Loop time of 3.35409 on 4 procs for 1000 steps with 23423 atoms

timestep 10800
fix_modify k1 demflag 0
fix_modify d2 demflag 0
fix_modify d1 demflag 0
Step CPU Atoms c_myNtypes[2] c_myNtypes[3] c_myNtypes[4] c_myNtypes[5] c_myNtypes[6] 
  792792            0    23423         2907        10749            0         4890         4877 
number of iterations: 3000 
  792793   0.77426948    23478         2908        10766            0         4913         4891 
Loop time of 0.774301 on 4 procs for 1 steps with 23478 atoms

fix_modify k1 demflag 1
fix_modify d2 demflag 1
fix_modify d1 demflag 1
delete_atoms region reg3
Deleted 0 atoms, new total = 23478
timestep 1e-3
run 1000 pre no post no
Step CPU Atoms c_myNtypes[2] c_myNtypes[3] c_myNtypes[4] c_myNtypes[5] c_myNtypes[6] 
  792793            0    23478         2908        10766            0         4913         4891 
  793793    2.2584251    23478         2908        10766            0         4913         4891 
Loop time of 2.25846 on 4 procs for 1000 steps with 23478 atoms

timestep 10800
fix_modify k1 demflag 0
fix_modify d2 demflag 0
fix_modify d1 demflag 0
Step CPU Atoms c_myNtypes[2] c_myNtypes[3] c_myNtypes[4] c_myNtypes[5] c_myNtypes[6] 
  793793            0    23478         2908        10766            0         4913         4891 
number of iterations: 3000 
  793794    0.6349637    23524         2909        10775            0         4931         4909 
Loop time of 0.635 on 4 procs for 1 steps with 23524 atoms

fix_modify k1 demflag 1
fix_modify d2 demflag 1
fix_modify d1 demflag 1
delete_atoms region reg3
Deleted 0 atoms, new total = 23524
timestep 1e-3
run 1000 pre no post no
Step CPU Atoms c_myNtypes[2] c_myNtypes[3] c_myNtypes[4] c_myNtypes[5] c_myNtypes[6] 
  793794            0    23524         2909        10775            0         4931         4909 
  794794    2.3425635    23524         2909        10775            0         4931         4909 
Loop time of 2.3426 on 4 procs for 1000 steps with 23524 atoms

timestep 10800
fix_modify k1 demflag 0
fix_modify d2 demflag 0
fix_modify d1 demflag 0
Step CPU Atoms c_myNtypes[2] c_myNtypes[3] c_myNtypes[4] c_myNtypes[5] c_myNtypes[6] 
  794794            0    23524         2909        10775            0         4931         4909 
number of iterations: 3000 
  794795   0.69610425    23590         2912        10801            0         4955         4922 
Loop time of 0.696138 on 4 procs for 1 steps with 23590 atoms

fix_modify k1 demflag 1
fix_modify d2 demflag 1
fix_modify d1 demflag 1
delete_atoms region reg3
Deleted 0 atoms, new total = 23590
timestep 1e-3
run 1000 pre no post no
Step CPU Atoms c_myNtypes[2] c_myNtypes[3] c_myNtypes[4] c_myNtypes[5] c_myNtypes[6] 
  794795            0    23590         2912        10801            0         4955         4922 
  795795    2.0608418    23590         2912        10801            0         4955         4922 
Loop time of 2.06087 on 4 procs for 1000 steps with 23590 atoms

timestep 10800
fix_modify k1 demflag 0
fix_modify d2 demflag 0
fix_modify d1 demflag 0
Step CPU Atoms c_myNtypes[2] c_myNtypes[3] c_myNtypes[4] c_myNtypes[5] c_myNtypes[6] 
  795795            0    23590         2912        10801            0         4955         4922 
number of iterations: 3000 
  795796   0.57930841    23634         2914        10811            0         4975         4934 
Loop time of 0.579343 on 4 procs for 1 steps with 23634 atoms

fix_modify k1 demflag 1
fix_modify d2 demflag 1
fix_modify d1 demflag 1
delete_atoms region reg3
Deleted 0 atoms, new total = 23634
timestep 1e-3
run 1000 pre no post no
Step CPU Atoms c_myNtypes[2] c_myNtypes[3] c_myNtypes[4] c_myNtypes[5] c_myNtypes[6] 
  795796            0    23634         2914        10811            0         4975         4934 
  796796    2.2027601    23634         2914        10811            0         4975         4934 
Loop time of 2.20279 on 4 procs for 1000 steps with 23634 atoms

timestep 10800
fix_modify k1 demflag 0
fix_modify d2 demflag 0
fix_modify d1 demflag 0
Step CPU Atoms c_myNtypes[2] c_myNtypes[3] c_myNtypes[4] c_myNtypes[5] c_myNtypes[6] 
  796796            0    23634         2914        10811            0         4975         4934 
number of iterations: 3000 
  796797   0.56366036    23695         2914        10812            0         5010         4959 
Loop time of 0.56369 on 4 procs for 1 steps with 23695 atoms

fix_modify k1 demflag 1
fix_modify d2 demflag 1
fix_modify d1 demflag 1
delete_atoms region reg3
Deleted 0 atoms, new total = 23695
timestep 1e-3
run 1000 pre no post no
Step CPU Atoms c_myNtypes[2] c_myNtypes[3] c_myNtypes[4] c_myNtypes[5] c_myNtypes[6] 
  796797            0    23695         2914        10812            0         5010         4959 
  797797    2.0695822    23695         2914        10812            0         5010         4959 
Loop time of 2.06961 on 4 procs for 1000 steps with 23695 atoms

timestep 10800
fix_modify k1 demflag 0
fix_modify d2 demflag 0
fix_modify d1 demflag 0
Step CPU Atoms c_myNtypes[2] c_myNtypes[3] c_myNtypes[4] c_myNtypes[5] c_myNtypes[6] 
  797797            0    23695         2914        10812            0         5010         4959 
number of iterations: 3000 
  797798   0.55022493    23748         2914        10826            0         5036         4972 
Loop time of 0.550253 on 4 procs for 1 steps with 23748 atoms

fix_modify k1 demflag 1
fix_modify d2 demflag 1
fix_modify d1 demflag 1
delete_atoms region reg3
Deleted 0 atoms, new total = 23748
timestep 1e-3
run 1000 pre no post no
Step CPU Atoms c_myNtypes[2] c_myNtypes[3] c_myNtypes[4] c_myNtypes[5] c_myNtypes[6] 
  797798            0    23748         2914        10826            0         5036         4972 
  798798    2.0922968    23748         2914        10826            0         5036         4972 
Loop time of 2.09233 on 4 procs for 1000 steps with 23748 atoms

timestep 10800
fix_modify k1 demflag 0
fix_modify d2 demflag 0
fix_modify d1 demflag 0
Step CPU Atoms c_myNtypes[2] c_myNtypes[3] c_myNtypes[4] c_myNtypes[5] c_myNtypes[6] 
  798798            0    23748         2914        10826            0         5036         4972 
number of iterations: 3000 
  798799   0.55550758    23812         2914        10843            0         5065         4990 
Loop time of 0.555537 on 4 procs for 1 steps with 23812 atoms

fix_modify k1 demflag 1
fix_modify d2 demflag 1
fix_modify d1 demflag 1
delete_atoms region reg3
Deleted 0 atoms, new total = 23812
timestep 1e-3
run 1000 pre no post no
Step CPU Atoms c_myNtypes[2] c_myNtypes[3] c_myNtypes[4] c_myNtypes[5] c_myNtypes[6] 
  798799            0    23812         2914        10843            0         5065         4990 
  799799    3.4698593    23812         2914        10843            0         5065         4990 
Loop time of 3.46991 on 4 procs for 1000 steps with 23812 atoms

timestep 10800
fix_modify k1 demflag 0
fix_modify d2 demflag 0
fix_modify d1 demflag 0
Step CPU Atoms c_myNtypes[2] c_myNtypes[3] c_myNtypes[4] c_myNtypes[5] c_myNtypes[6] 
  799799            0    23812         2914        10843            0         5065         4990 
number of iterations: 3000 
  799800   0.93143424    23855         2914        10853            0         5085         5003 
Loop time of 0.931497 on 4 procs for 1 steps with 23855 atoms

97.0% CPU use with 4 MPI tasks x no OpenMP threads

MPI task timing breakdown:
Section |  min time  |  avg time  |  max time  |%varavg| %total
---------------------------------------------------------------
Pair    | 0.00192    | 0.0027123  | 0.00488    |   2.4 |  0.29
Neigh   | 0.018618   | 0.020538   | 0.021449   |   0.8 |  2.20
Comm    | 0.0032277  | 0.003286   | 0.0034058  |   0.1 |  0.35
Output  | 0.00011577 | 0.0022888  | 0.0032273  |   2.6 |  0.25
Modify  | 0.90141    | 0.90244    | 0.90429    |   0.1 | 96.88
Other   |            | 0.0002304  |            |       |  0.02

Nlocal:    5963.75 ave 6573 max 5639 min
Histogram: 1 1 1 0 0 0 0 0 0 1
Nghost:    2742.5 ave 2820 max 2654 min
Histogram: 1 0 1 0 0 0 0 0 1 1
Neighs:    39472.2 ave 43214 max 37882 min
Histogram: 2 1 0 0 0 0 0 0 0 1

Total # of neighbors = 157889
Ave neighs/atom = 6.6187
Neighbor list builds = 4388
Dangerous builds = 0
fix_modify k1 demflag 1
fix_modify d2 demflag 1
fix_modify d1 demflag 1
delete_atoms region reg3
Deleted 0 atoms, new total = 23855
timestep 1e-3
run 1000 pre no post no
Step CPU Atoms c_myNtypes[2] c_myNtypes[3] c_myNtypes[4] c_myNtypes[5] c_myNtypes[6] 
  799800            0    23855         2914        10853            0         5085         5003 
  800800    2.8212688    23855         2914        10853            0         5085         5003 
Loop time of 2.82129 on 4 procs for 1000 steps with 23855 atoms

timestep 10800
fix_modify k1 demflag 0
fix_modify d2 demflag 0
fix_modify d1 demflag 0



Total wall time: 0:16:16
