 NUFEB Simulation

     100 atoms 
     2 atom types 
     4 nutrients 

  0.0e-4   1.00e-04  xlo xhi 
  0.0e-4   1.00e-04  ylo yhi 
  0.0e-4   1.00e-05  zlo zhi 

 Atoms 

     1 1 1.91e-06  370 6.57e-05 1.46e-05 1.91e-06 1.91e-06 
     2 1 1.76e-06  370 6.29e-05 7.08e-05 1.76e-06 1.76e-06 
     3 1 1.75e-06  370 7.83e-05 5.33e-05 1.75e-06 1.75e-06 
     4 1 1.70e-06  370 1.27e-05 6.01e-05 1.70e-06 1.70e-06 
     5 1 1.76e-06  370 8.63e-05 2.16e-05 1.76e-06 1.76e-06 
     6 1 1.65e-06  370 7.22e-06 2.36e-05 1.65e-06 1.65e-06 
     7 1 1.73e-06  370 3.17e-06 2.54e-05 1.73e-06 1.73e-06 
     8 1 1.77e-06  370 3.85e-06 3.12e-05 1.77e-06 1.77e-06 
     9 1 1.84e-06  370 2.17e-05 5.50e-05 1.84e-06 1.84e-06 
     10 1 1.59e-06  370 4.76e-05 2.65e-05 1.59e-06 1.59e-06 
     11 1 1.82e-06  370 4.01e-05 7.82e-05 1.82e-06 1.82e-06 
     12 1 1.79e-06  370 4.20e-06 9.80e-05 1.79e-06 1.79e-06 
     13 1 1.84e-06  370 4.16e-06 6.23e-05 1.84e-06 1.84e-06 
     14 1 1.65e-06  370 3.19e-05 7.54e-05 1.65e-06 1.65e-06 
     15 1 1.58e-06  370 7.44e-05 9.74e-05 1.58e-06 1.58e-06 
     16 1 1.52e-06  370 1.46e-05 1.11e-05 1.52e-06 1.52e-06 
     17 1 1.81e-06  370 2.23e-05 6.90e-05 1.81e-06 1.81e-06 
     18 1 1.84e-06  370 9.53e-05 5.14e-05 1.84e-06 1.84e-06 
     19 1 1.50e-06  370 5.52e-05 6.03e-06 1.50e-06 1.50e-06 
     20 1 1.93e-06  370 4.08e-05 8.36e-05 1.93e-06 1.93e-06 
     21 1 1.79e-06  370 5.06e-05 7.88e-05 1.79e-06 1.79e-06 
     22 1 1.76e-06  370 2.91e-05 4.32e-05 1.76e-06 1.76e-06 
     23 1 1.74e-06  370 4.92e-05 6.64e-05 1.74e-06 1.74e-06 
     24 1 1.81e-06  370 1.45e-05 6.84e-06 1.81e-06 1.81e-06 
     25 1 1.67e-06  370 8.33e-05 8.13e-05 1.67e-06 1.67e-06 
     26 1 1.46e-06  370 9.50e-05 4.69e-05 1.46e-06 1.46e-06 
     27 1 1.68e-06  370 8.74e-06 2.41e-05 1.68e-06 1.68e-06 
     28 1 1.39e-06  370 1.08e-05 1.61e-05 1.39e-06 1.39e-06 
     29 1 1.81e-06  370 3.40e-05 2.53e-05 1.81e-06 1.81e-06 
     30 1 1.54e-06  370 6.60e-05 5.45e-05 1.54e-06 1.54e-06 
     31 1 1.56e-06  370 4.07e-05 8.12e-05 1.56e-06 1.56e-06 
     32 1 1.64e-06  370 5.33e-05 4.69e-05 1.64e-06 1.64e-06 
     33 1 1.55e-06  370 5.85e-05 9.46e-05 1.55e-06 1.55e-06 
     34 1 1.44e-06  370 4.64e-05 2.00e-05 1.44e-06 1.44e-06 
     35 1 1.59e-06  370 1.89e-05 6.00e-05 1.59e-06 1.59e-06 
     36 1 1.60e-06  370 5.21e-05 2.50e-05 1.60e-06 1.60e-06 
     37 1 1.40e-06  370 1.83e-05 8.50e-05 1.40e-06 1.40e-06 
     38 1 1.85e-06  370 8.27e-05 9.40e-06 1.85e-06 1.85e-06 
     39 1 1.59e-06  370 5.44e-05 5.64e-05 1.59e-06 1.59e-06 
     40 1 1.89e-06  370 9.00e-05 4.75e-05 1.89e-06 1.89e-06 
     41 1 1.69e-06  370 1.17e-05 8.61e-05 1.69e-06 1.69e-06 
     42 1 1.76e-06  370 8.74e-05 7.68e-05 1.76e-06 1.76e-06 
     43 1 1.86e-06  370 6.79e-05 2.33e-05 1.86e-06 1.86e-06 
     44 1 1.81e-06  370 4.46e-05 2.06e-05 1.81e-06 1.81e-06 
     45 1 1.78e-06  370 3.25e-05 3.10e-06 1.78e-06 1.78e-06 
     46 1 1.38e-06  370 1.99e-05 9.10e-05 1.38e-06 1.38e-06 
     47 1 1.78e-06  370 2.19e-05 7.41e-05 1.78e-06 1.78e-06 
     48 1 1.54e-06  370 6.82e-05 5.05e-05 1.54e-06 1.54e-06 
     49 1 1.75e-06  370 5.95e-05 9.17e-05 1.75e-06 1.75e-06 
     50 1 1.69e-06  370 2.68e-05 6.99e-06 1.69e-06 1.69e-06 
     51 2 1.08e-06  230 6.59e-05 1.13e-06 1.08e-06 1.08e-06 
     52 2 1.12e-06  230 3.75e-06 7.27e-05 1.12e-06 1.12e-06 
     53 2 1.21e-06  230 3.27e-05 1.60e-05 1.21e-06 1.21e-06 
     54 2 8.94e-07  230 7.56e-05 6.23e-05 8.94e-07 8.94e-07 
     55 2 1.13e-06  230 1.57e-05 6.63e-05 1.13e-06 1.13e-06 
     56 2 1.24e-06  230 7.32e-05 1.71e-05 1.24e-06 1.24e-06 
     57 2 1.36e-06  230 4.68e-05 6.70e-06 1.36e-06 1.36e-06 
     58 2 1.03e-06  230 2.54e-05 4.15e-05 1.03e-06 1.03e-06 
     59 2 1.24e-06  230 6.46e-05 2.80e-06 1.24e-06 1.24e-06 
     60 2 1.13e-06  230 8.52e-05 3.63e-05 1.13e-06 1.13e-06 
     61 2 1.24e-06  230 3.67e-05 7.63e-05 1.24e-06 1.24e-06 
     62 2 1.28e-06  230 8.51e-06 4.19e-05 1.28e-06 1.28e-06 
     63 2 1.26e-06  230 2.67e-05 6.89e-06 1.26e-06 1.26e-06 
     64 2 8.98e-07  230 8.39e-05 3.51e-05 8.98e-07 8.98e-07 
     65 2 9.20e-07  230 6.99e-05 4.23e-05 9.20e-07 9.20e-07 
     66 2 1.35e-06  230 1.96e-05 5.38e-05 1.35e-06 1.35e-06 
     67 2 1.34e-06  230 7.99e-05 6.64e-05 1.34e-06 1.34e-06 
     68 2 1.28e-06  230 7.55e-05 4.10e-05 1.28e-06 1.28e-06 
     69 2 1.29e-06  230 5.61e-05 4.42e-05 1.29e-06 1.29e-06 
     70 2 1.18e-06  230 7.89e-05 3.34e-05 1.18e-06 1.18e-06 
     71 2 9.14e-07  230 7.77e-05 9.51e-05 9.14e-07 9.14e-07 
     72 2 1.32e-06  230 7.44e-06 1.99e-05 1.32e-06 1.32e-06 
     73 2 1.12e-06  230 5.16e-05 5.33e-05 1.12e-06 1.12e-06 
     74 2 1.05e-06  230 1.08e-05 4.66e-05 1.05e-06 1.05e-06 
     75 2 1.08e-06  230 8.81e-05 3.13e-05 1.08e-06 1.08e-06 
     76 2 1.14e-06  230 5.09e-05 1.27e-05 1.14e-06 1.14e-06 
     77 2 1.16e-06  230 4.41e-05 2.45e-05 1.16e-06 1.16e-06 
     78 2 9.72e-07  230 6.21e-05 5.30e-05 9.72e-07 9.72e-07 
     79 2 9.02e-07  230 8.82e-06 4.26e-05 9.02e-07 9.02e-07 
     80 2 1.09e-06  230 9.28e-05 9.45e-05 1.09e-06 1.09e-06 
     81 2 1.26e-06  230 7.41e-06 9.81e-05 1.26e-06 1.26e-06 
     82 2 1.10e-06  230 3.22e-05 2.82e-05 1.10e-06 1.10e-06 
     83 2 1.36e-06  230 5.13e-05 7.94e-05 1.36e-06 1.36e-06 
     84 2 1.37e-06  230 3.04e-05 6.21e-05 1.37e-06 1.37e-06 
     85 2 9.88e-07  230 8.01e-05 1.30e-05 9.88e-07 9.88e-07 
     86 2 1.01e-06  230 2.81e-05 3.60e-05 1.01e-06 1.01e-06 
     87 2 1.37e-06  230 9.30e-05 7.84e-05 1.37e-06 1.37e-06 
     88 2 9.00e-07  230 5.66e-05 3.13e-05 9.00e-07 9.00e-07 
     89 2 8.93e-07  230 9.48e-05 5.70e-05 8.93e-07 8.93e-07 
     90 2 1.31e-06  230 8.34e-06 2.77e-05 1.31e-06 1.31e-06 
     91 2 1.38e-06  230 8.57e-06 5.79e-05 1.38e-06 1.38e-06 
     92 2 1.27e-06  230 3.33e-05 9.82e-06 1.27e-06 1.27e-06 
     93 2 1.18e-06  230 7.77e-05 1.39e-05 1.18e-06 1.18e-06 
     94 2 1.38e-06  230 8.87e-05 6.40e-05 1.38e-06 1.38e-06 
     95 2 1.37e-06  230 3.03e-05 1.39e-05 1.37e-06 1.37e-06 
     96 2 1.37e-06  230 5.37e-05 2.39e-05 1.37e-06 1.37e-06 
     97 2 1.37e-06  230 1.13e-05 9.41e-05 1.37e-06 1.37e-06 
     98 2 1.02e-06  230 1.24e-05 8.42e-05 1.02e-06 1.02e-06 
     99 2 1.04e-06  230 4.01e-05 5.30e-05 1.04e-06 1.04e-06 
     100 2 1.23e-06  230 7.95e-05 7.04e-05 1.23e-06 1.23e-06 

 Nutrients 

     1 sub g nn nn nn 1.00e-01 1.00e-01 
     2 o2 l nn nn nd 9.00e-03 9.00e-03 
     3 suc l nn nn nn 3.42e-20 3.42e-20 
     4 co2 l nn nn nd 2.99e-02 2.99e-02 

 Type Name 

     1 cyano  
     2 ecw  

 Diffusion Coeffs 

     sub 0 
     o2 2.3e-09 
     suc 5.2e-10 
     co2 1.9e-09 

 Growth Rate 

     cyano 2.296e-05 
     ecw 0.000355 

 Ks 

     cyano 0.00035 0.0002 0.01 0.00812672 
     ecw 0 0.001 3.6 0.05 

 Yield 

     cyano 0.55 
     ecw 0.49 

 Maintenance 

     cyano 0 
     ecw 0 

 Decay 

     cyano 0 
     ecw 0 



