  Granular Flow Simulation 

       50 atoms 
       2 atom types 
       3 nutrients

   0.0   2.0e-04  xlo xhi 
   0.0   1.0e-05  ylo yhi 
   0.0   2.0e-04  zlo zhi 

 Atoms

     1 1 0.78e-6 290 0.5e-5 3e-6 1e-6 0.78e-6  
     2 2 0.78e-6 290 2.5e-5 3e-6 1e-6 0.78e-6  
     3 1 0.78e-6 290 4.5e-5 3e-6 1e-6 0.78e-6  
     4 2 0.78e-6 290 6.5e-5 3e-6 1e-6 0.78e-6  
     5 1 0.78e-6 290 8.5e-5 3e-6 1e-6 0.78e-6  
     6 2 0.78e-6 290 10.5e-5 3e-6 1e-6 0.78e-6  
     7 1 0.78e-6 290 12.5e-5 3e-6 1e-6 0.78e-6  
     8 2 0.78e-6 290 14.5e-5 3e-6 1e-6 0.78e-6  
     9 1 0.78e-6 290 16.5e-5 3e-6 1e-6 0.78e-6  
     10 2 0.78e-6 290 18.5e-5 3e-6 1e-6 0.78e-6  
     11 1 0.78e-6 290 0.5e-5 7e-6 1e-6 0.78e-6  
     12 2 0.78e-6 290 2.5e-5 7e-6 1e-6 0.78e-6  
     13 1 0.78e-6 290 4.5e-5 7e-6 1e-6 0.78e-6  
     14 2 0.78e-6 290 6.5e-5 7e-6 1e-6 0.78e-6  
     15 1 0.78e-6 290 8.5e-5 7e-6 1e-6 0.78e-6  
     16 2 0.78e-6 290 10.5e-5 7e-6 1e-6 0.78e-6  
     17 1 0.78e-6 290 12.5e-5 7e-6 1e-6 0.78e-6  
     18 2 0.78e-6 290 14.5e-5 7e-6 1e-6 0.78e-6  
     19 1 0.78e-6 290 16.5e-5 7e-6 1e-6 0.78e-6  
     20 2 0.78e-6 290 18.5e-5 7e-6 1e-6 0.78e-6  
     21 1 0.78e-6 290 0.5e-5 1e-6 1e-6 0.78e-6  
     22 2 0.78e-6 290 2.5e-5 1e-6 1e-6 0.78e-6  
     23 1 0.78e-6 290 4.5e-5 1e-6 1e-6 0.78e-6  
     24 2 0.78e-6 290 6.5e-5 1e-6 1e-6 0.78e-6  
     25 1 0.78e-6 290 8.5e-5 1e-6 1e-6 0.78e-6  
     26 2 0.78e-6 290 10.5e-5 1e-6 1e-6 0.78e-6  
     27 1 0.78e-6 290 12.5e-5 1e-6 1e-6 0.78e-6  
     28 2 0.78e-6 290 14.5e-5 1e-6 1e-6 0.78e-6  
     29 1 0.78e-6 290 16.5e-5 1e-6 1e-6 0.78e-6  
     30 2 0.78e-6 290 18.5e-5 1e-6 1e-6 0.78e-6  
     31 1 0.78e-6 290 0.5e-5 5e-6 1e-6 0.78e-6  
     32 2 0.78e-6 290 2.5e-5 5e-6 1e-6 0.78e-6  
     33 1 0.78e-6 290 4.5e-5 5e-6 1e-6 0.78e-6  
     34 2 0.78e-6 290 6.5e-5 5e-6 1e-6 0.78e-6  
     35 1 0.78e-6 290 8.5e-5 5e-6 1e-6 0.78e-6  
     36 2 0.78e-6 290 10.5e-5 5e-6 1e-6 0.78e-6  
     37 1 0.78e-6 290 12.5e-5 5e-6 1e-6 0.78e-6  
     38 2 0.78e-6 290 14.5e-5 5e-6 1e-6 0.78e-6  
     39 1 0.78e-6 290 16.5e-5 5e-6 1e-6 0.78e-6  
     40 2 0.78e-6 290 18.5e-5 5e-6 1e-6 0.78e-6  
     41 1 0.78e-6 290 0.5e-5 9e-6 1e-6 0.78e-6  
     42 2 0.78e-6 290 2.5e-5 9e-6 1e-6 0.78e-6  
     43 1 0.78e-6 290 4.5e-5 9e-6 1e-6 0.78e-6  
     44 2 0.78e-6 290 6.5e-5 9e-6 1e-6 0.78e-6  
     45 1 0.78e-6 290 8.5e-5 9e-6 1e-6 0.78e-6  
     46 2 0.78e-6 290 10.5e-5 9e-6 1e-6 0.78e-6  
     47 1 0.78e-6 290 12.5e-5 9e-6 1e-6 0.78e-6  
     48 2 0.78e-6 290 14.5e-5 9e-6 1e-6 0.78e-6  
     49 1 0.78e-6 290 16.5e-5 9e-6 1e-6 0.78e-6  
     50 2 0.78e-6 290 18.5e-5 9e-6 1e-6 0.78e-6  



 Nutrients

     1 o2 l 3.13e-5 3.13e-5 3.13e-5 3.13e-5 3.13e-5 3.13e-5 3.13e-5
     2 h2o l 1 1 1 1 1 1 1
     3 h l 0 0 0 0 0 0 0

 Type Name

     1 hetr
     2 hety

 Diffusion Coeffs
     
     o2 2e-9
     h2o 0
     h 0 

 Ks
     
     hety 9.38e-6 0 0
     hetr 1.88e-5 0 0

 Consumption Rate

     hety 0.000381111
     hetr 0.001524167

 Yield
    
     hety 0.0598373984
     hetr 0.0299186992

 Maintenance
 
     hety 0
     hetr 0

 Electron Donor
    
     hety o2
     hetr o2

 Decay

     hety 0
     hetr 0

 Catabolism Coeffs
         
     hety -1 0 0
     hetr -1 0 0

 Anabolism Coeffs
          
     hety 0 0 0
     hetr 0 0 0
 
 Decay Coeffs
           
     hety 0 0 0
     hetr 0 0 0
 
 Nutrient Energy

    o2 inf 16.4 inf inf inf 2
    h2o inf -237.18 -157.3 inf inf 2
    h inf 0 inf inf inf 2

 Type Energy

     hety inf -68 inf inf inf 2 
     hetr inf -67 inf inf inf 2

 Nutrient Charge
  
    o2 na 0 na na na
    h2o na 0 -1 na na
    h na 1 na na na

 Dissipation

     hety 0
     hetr 0


