  Granular Flow Simulation 

       0 atoms 
       1 atom types 
       5 nutrients

   0.000000e-04   1.6e-03  xlo xhi 
   0.000000e-04   0.03e-3  ylo yhi 
   0.000000e-04   0.40e-3  zlo zhi 

 Atoms

    #1 1 1.0e-6 150 8.5e-5 1.5e-5 5e-6 1.0e-6

 Type Name

     1 het

 Nutrients

     1 sub l 0.005 0.005 0.005 0.005 0.005 0.005 0.005
     2 o2 l 1e-4 1e-4 1e-4 1e-4 1e-4 1e-4 1e-4
     3 no2 l 8e-4 8e-4 8e-4 8e-4 8e-4 8e-4 8e-4
     4 no3 l 8e-4 8e-4 8e-4 8e-4 8e-4 8e-4 8e-4
     5 nh4 l 9e-4 9e-4 9e-4 9e-4 9e-4 9e-4 9e-4

 Diffusion Coeffs
    
     sub 1.1574e-9
     o2 0
     no2 0
     no3 0
     nh4 0

 Ks
     
     het 0.004 0 0 0 0

 Growth Rate

     het 0.000068056

 Yield
    
     het 0.63

 Maintenance
 
     het 0

 Decay

     het 0


