LAMMPS (5 Nov 2016)
# NUFEB simulation

units si
atom_style      bio
atom_modify     map array sort 1000 5.0e-6
boundary        pp pp ff
newton          off
processors 4 1 1

comm_modify     vel yes

read_data_bio atom.in
  orthogonal box = (0 0 0) to (0.0004 3e-05 0.0006)
  4 by 1 by 1 MPI processor grid
  reading atoms ...
  0 atoms
  5 nutrients

group HET type 1
0 atoms in group HET
group AOB type 2
0 atoms in group AOB

variable  x equal 40
variable  y equal 3
variable  z equal 1

lattice sc 2e-5 origin 0.75 0.5 0.5
Lattice spacing in x,y,z = 2e-05 2e-05 2e-05
region reg block 0 $x 0 $y 0 $z
region reg block 0 40 0 $y 0 $z
region reg block 0 40 0 3 0 $z
region reg block 0 40 0 3 0 1
create_atoms 1 random 200 8767 reg
Created 200 atoms

#lattice sc 2e-5 origin 0.25 0.5 0.5
region reg2 block 0 $x 0 $y 0 $z
region reg2 block 0 40 0 $y 0 $z
region reg2 block 0 40 0 3 0 $z
region reg2 block 0 40 0 3 0 1
create_atoms 2 random 200 12321 reg
Created 200 atoms

neighbor        5e-7 bin

set type 1 diameter 9.5e-6
  200 settings made for diameter
set type 1 density 16
  200 settings made for density
set type 2 diameter 9.5e-6
  200 settings made for diameter
set type 2 density 16
  200 settings made for density

neigh_modify    delay 0 one 2000

##############Define DEM Variables&Commands##############

pair_style  gran/hooke/history 1.e-4 NULL 1.e-5 NULL 0.0 1
pair_coeff  * *

timestep 1440

variable kanc equal 50

fix 1 all nve/limit 1e-7
fix fv all viscous 1e-5

fix zw all wall/gran hooke/history 2000 NULL 500.0 NULL 1.5 0 zplane  0.0  6e-04

fix zwa all walladh v_kanc zplane  0.0   6e-04

variable ke equal 5e+10
#fix j1 all epsadh 1 v_ke 1

##############Define IBm Variables##############

#EPS density, ratio variables and division diameter
variable EPSdens equal 30
variable EPSratio equal 1.25
variable divDia equal 1e-5

#kinetics variables
variable etaHET equal 0.0
variable diffT equal 1e-3
variable tol equal 1e-5
variable layer equal 0

##############Define IBm Commands##############

fix k1 all kinetics 1 40 3 60 v_diffT v_layer niter 5000 demflag 0
fix kgm all kinetics/growth/monod v_EPSdens v_etaHET
fix g1 all kinetics/diffusion v_tol pp pp nd kg bulk 2.31e-7 1.25e-3 0.1
fix d1 all divide 1 v_EPSdens v_divDia 1235 demflag 0
fix vf1 all verify 1 bm3 demflag 0

##############Simulation Output##############

compute myHeight all avg_height
compute myMass all biomass
compute myNtype all ntypes

#dump du0 all bio 5010 biomass ntypes bulk
#dump		id all custom 120100 snapshot.bubblemd id type diameter x y z
thermo_style    custom step cpu atoms c_myHeight c_myNtype[*] c_myMass[*]
thermo          1001
thermo_modify   lost warn

##############Two-loops Run##############

run 3600 pre no post no every 1 "fix_modify k1 demflag 1" "fix_modify d1 demflag 1" "fix_modify vf1 demflag 1" "timestep 0.1" "run 2000 pre no post no" "timestep 1440" "fix_modify k1 demflag 0" "fix_modify d1 demflag 0" "fix_modify vf1 demflag 0"
WARNING: EPS is not defined in fix_kinetics/kinetics/monod (../fix_bio_kinetics_monod.cpp:253)
ae = 1.350000e+02, top = 2.474847e-05, base = 4.791529e-06, ave_h = 9.313456e-06 
Neighbor list info ...
  2 neighbor list requests
  update every 1 steps, delay 0 steps, check yes
  max neighbors/atom: 2000, page size: 100000
  master list distance cutoff = 1e-05
  ghost atom cutoff = 1e-05
  binsize = 5e-06 -> bins = 80 6 120
Memory usage per processor = 7.47557 Mbytes
Step CPU Atoms c_myHeight c_myNtype[1] c_myNtype[2] c_myNtype[3] c_myMass[1] c_myMass[2] c_myMass[3] 
       0            0      400 1.7066496e-05            0          200          200 2.8730912e-12 1.4365456e-12 1.4365456e-12 
number of iterations: 640 
maxz = 2.488415e-05 
S-sub-bulk = 2.868653e-02
S-sub-base = 2.983453e-02
S-nh4-bulk = 6.801953e-04
S-nh4-base = 1.430987e-03

       1  0.029314995      400 1.7350659e-05            0          200          200 3.0138916e-12 1.5512835e-12 1.462608e-12 
Loop time of 0.0293276 on 4 procs for 1 steps with 400 atoms

99.0% CPU use with 4 MPI tasks x no OpenMP threads
fix_modify k1 demflag 1
fix_modify d1 demflag 1
fix_modify vf1 demflag 1
timestep 0.1
run 2000 pre no post no
Step CPU Atoms c_myHeight c_myNtype[1] c_myNtype[2] c_myNtype[3] c_myMass[1] c_myMass[2] c_myMass[3] 
       1            0      400 1.7350659e-05            0          200          200 3.0138916e-12 1.5512835e-12 1.462608e-12 
    1001  0.055073023      400 2.7290251e-05            0          200          200 3.0138916e-12 1.5512835e-12 1.462608e-12 
    2001  0.088888884      400 2.7280657e-05            0          200          200 3.0138916e-12 1.5512835e-12 1.462608e-12 
Loop time of 0.0889099 on 4 procs for 2000 steps with 400 atoms

99.9% CPU use with 4 MPI tasks x no OpenMP threads
timestep 1440
fix_modify k1 demflag 0
fix_modify d1 demflag 0
fix_modify vf1 demflag 0
Step CPU Atoms c_myHeight c_myNtype[1] c_myNtype[2] c_myNtype[3] c_myMass[1] c_myMass[2] c_myMass[3] 
    2001            0      400 2.7280657e-05            0          200          200 3.0138916e-12 1.5512835e-12 1.462608e-12 
number of iterations: 1267 
maxz = 3.581285e-05 
S-sub-bulk = 2.762453e-02
S-sub-base = 2.856590e-02
S-nh4-bulk = 3.381511e-04
S-nh4-base = 6.448050e-04

    2002  0.060990095      400 2.7489717e-05            0          200          200 3.1537967e-12 1.6745366e-12 1.4792601e-12 
Loop time of 0.0610054 on 4 procs for 1 steps with 400 atoms

100.0% CPU use with 4 MPI tasks x no OpenMP threads
fix_modify k1 demflag 1
fix_modify d1 demflag 1
fix_modify vf1 demflag 1
timestep 0.1
run 2000 pre no post no
Step CPU Atoms c_myHeight c_myNtype[1] c_myNtype[2] c_myNtype[3] c_myMass[1] c_myMass[2] c_myMass[3] 
    2002            0      400 2.7489717e-05            0          200          200 3.1537967e-12 1.6745366e-12 1.4792601e-12 
    3003  0.040714025      400 2.7832995e-05            0          200          200 3.1537967e-12 1.6745366e-12 1.4792601e-12 
    4002   0.07287693      400 2.7904184e-05            0          200          200 3.1537967e-12 1.6745366e-12 1.4792601e-12 
Loop time of 0.0728939 on 4 procs for 2000 steps with 400 atoms

100.0% CPU use with 4 MPI tasks x no OpenMP threads
timestep 1440
fix_modify k1 demflag 0
fix_modify d1 demflag 0
fix_modify vf1 demflag 0
Step CPU Atoms c_myHeight c_myNtype[1] c_myNtype[2] c_myNtype[3] c_myMass[1] c_myMass[2] c_myMass[3] 
    4002            0      400 2.7904184e-05            0          200          200 3.1537967e-12 1.6745366e-12 1.4792601e-12 
number of iterations: 1948 
maxz = 3.699991e-05 
S-sub-bulk = 2.674096e-02
S-sub-base = 2.740302e-02
S-nh4-bulk = 3.095651e-04
S-nh4-base = 3.030312e-04

    4003  0.078019142      400 2.8032983e-05            0          200          200 3.2946946e-12 1.8068297e-12 1.4878649e-12 
Loop time of 0.0780318 on 4 procs for 1 steps with 400 atoms

99.9% CPU use with 4 MPI tasks x no OpenMP threads
fix_modify k1 demflag 1
fix_modify d1 demflag 1
fix_modify vf1 demflag 1
timestep 0.1
run 2000 pre no post no
Step CPU Atoms c_myHeight c_myNtype[1] c_myNtype[2] c_myNtype[3] c_myMass[1] c_myMass[2] c_myMass[3] 
    4003            0      400 2.8032983e-05            0          200          200 3.2946946e-12 1.8068297e-12 1.4878649e-12 
    4004 6.0081482e-05      400 2.7977673e-05            0          200          200 3.2946946e-12 1.8068297e-12 1.4878649e-12 
    5005  0.029379129      400 2.9061268e-05            0          200          200 3.2946946e-12 1.8068297e-12 1.4878649e-12 
    6003   0.05036211      400 2.907349e-05            0          200          200 3.2946946e-12 1.8068297e-12 1.4878649e-12 
Loop time of 0.0503769 on 4 procs for 2000 steps with 400 atoms

99.9% CPU use with 4 MPI tasks x no OpenMP threads
timestep 1440
fix_modify k1 demflag 0
fix_modify d1 demflag 0
fix_modify vf1 demflag 0
Step CPU Atoms c_myHeight c_myNtype[1] c_myNtype[2] c_myNtype[3] c_myMass[1] c_myMass[2] c_myMass[3] 
    6003            0      400 2.907349e-05            0          200          200 3.2946946e-12 1.8068297e-12 1.4878649e-12 
number of iterations: 1180 
maxz = 4.032802e-05 
S-sub-bulk = 2.597912e-02
S-sub-base = 2.660109e-02
S-nh4-bulk = 3.084460e-04
S-nh4-base = 2.774512e-04

    6004  0.042942047      600 3.0230783e-05            0          400          200 3.4447092e-12 1.9489753e-12 1.4957339e-12 
Loop time of 0.0429537 on 4 procs for 1 steps with 600 atoms

99.9% CPU use with 4 MPI tasks x no OpenMP threads
fix_modify k1 demflag 1
fix_modify d1 demflag 1
fix_modify vf1 demflag 1
timestep 0.1
run 2000 pre no post no
Step CPU Atoms c_myHeight c_myNtype[1] c_myNtype[2] c_myNtype[3] c_myMass[1] c_myMass[2] c_myMass[3] 
    6004            0      600 3.0230783e-05            0          400          200 3.4447092e-12 1.9489753e-12 1.4957339e-12 
    6006 0.00011396408      600 3.0634335e-05            0          400          200 3.4447092e-12 1.9489753e-12 1.4957339e-12 
    7007  0.041764975      600 3.3230353e-05            0          400          200 3.4447092e-12 1.9489753e-12 1.4957339e-12 
    8004  0.069434166      600 3.3237621e-05            0          400          200 3.4447092e-12 1.9489753e-12 1.4957339e-12 
Loop time of 0.0694494 on 4 procs for 2000 steps with 600 atoms

99.9% CPU use with 4 MPI tasks x no OpenMP threads
timestep 1440
fix_modify k1 demflag 0
fix_modify d1 demflag 0
fix_modify vf1 demflag 0
Step CPU Atoms c_myHeight c_myNtype[1] c_myNtype[2] c_myNtype[3] c_myMass[1] c_myMass[2] c_myMass[3] 
    8004            0      600 3.3237621e-05            0          400          200 3.4447092e-12 1.9489753e-12 1.4957339e-12 
number of iterations: 1528 
maxz = 4.304610e-05 
S-sub-bulk = 2.529925e-02
S-sub-base = 2.578954e-02
S-nh4-bulk = 3.161716e-04
S-nh4-base = 2.653644e-04

    8005  0.064414978      600 3.3239735e-05            0          400          200 3.6048822e-12 2.1016051e-12 1.5032771e-12 
Loop time of 0.0644314 on 4 procs for 1 steps with 600 atoms

99.9% CPU use with 4 MPI tasks x no OpenMP threads
fix_modify k1 demflag 1
fix_modify d1 demflag 1
fix_modify vf1 demflag 1
timestep 0.1
run 2000 pre no post no
Step CPU Atoms c_myHeight c_myNtype[1] c_myNtype[2] c_myNtype[3] c_myMass[1] c_myMass[2] c_myMass[3] 
    8005            0      600 3.3239735e-05            0          400          200 3.6048822e-12 2.1016051e-12 1.5032771e-12 
    8008 0.00032711029      600  3.34196e-05            0          400          200 3.6048822e-12 2.1016051e-12 1.5032771e-12 
    9009  0.039344072      600 3.4181177e-05            0          400          200 3.6048822e-12 2.1016051e-12 1.5032771e-12 
   10005  0.066703081      600 3.4182317e-05            0          400          200 3.6048822e-12 2.1016051e-12 1.5032771e-12 
Loop time of 0.0667169 on 4 procs for 2000 steps with 600 atoms

99.9% CPU use with 4 MPI tasks x no OpenMP threads
timestep 1440
fix_modify k1 demflag 0
fix_modify d1 demflag 0
fix_modify vf1 demflag 0
Step CPU Atoms c_myHeight c_myNtype[1] c_myNtype[2] c_myNtype[3] c_myMass[1] c_myMass[2] c_myMass[3] 
   10005            0      600 3.4182317e-05            0          400          200 3.6048822e-12 2.1016051e-12 1.5032771e-12 
number of iterations: 1437 
maxz = 4.352944e-05 
S-sub-bulk = 2.467038e-02
S-sub-base = 2.507971e-02
S-nh4-bulk = 3.143591e-04
S-nh4-base = 2.713251e-04

   10006  0.061659813      600 3.4154013e-05            0          400          200 3.7765869e-12 2.2655152e-12 1.5110717e-12 
Loop time of 0.0616725 on 4 procs for 1 steps with 600 atoms

99.9% CPU use with 4 MPI tasks x no OpenMP threads
fix_modify k1 demflag 1
fix_modify d1 demflag 1
fix_modify vf1 demflag 1
timestep 0.1
run 2000 pre no post no
Step CPU Atoms c_myHeight c_myNtype[1] c_myNtype[2] c_myNtype[3] c_myMass[1] c_myMass[2] c_myMass[3] 
   10006            0      600 3.4154013e-05            0          400          200 3.7765869e-12 2.2655152e-12 1.5110717e-12 
   10010 0.00039601326      600 3.4466507e-05            0          400          200 3.7765869e-12 2.2655152e-12 1.5110717e-12 
   11011  0.045300007      600 3.4983695e-05            0          400          200 3.7765869e-12 2.2655152e-12 1.5110717e-12 
   12006  0.077202082      600 3.5075982e-05            0          400          200 3.7765869e-12 2.2655152e-12 1.5110717e-12 
Loop time of 0.0772178 on 4 procs for 2000 steps with 600 atoms

99.9% CPU use with 4 MPI tasks x no OpenMP threads
timestep 1440
fix_modify k1 demflag 0
fix_modify d1 demflag 0
fix_modify vf1 demflag 0
Step CPU Atoms c_myHeight c_myNtype[1] c_myNtype[2] c_myNtype[3] c_myMass[1] c_myMass[2] c_myMass[3] 
   12006            0      600 3.5075982e-05            0          400          200 3.7765869e-12 2.2655152e-12 1.5110717e-12 
number of iterations: 1402 
maxz = 4.444343e-05 
S-sub-bulk = 2.406967e-02
S-sub-base = 2.442061e-02
S-nh4-bulk = 3.122530e-04
S-nh4-base = 2.703210e-04

   12007  0.062046051      600 3.5131111e-05            0          400          200 3.9603831e-12 2.4415076e-12 1.5188755e-12 
Loop time of 0.0620589 on 4 procs for 1 steps with 600 atoms

99.9% CPU use with 4 MPI tasks x no OpenMP threads
fix_modify k1 demflag 1
fix_modify d1 demflag 1
fix_modify vf1 demflag 1
timestep 0.1
run 2000 pre no post no
Step CPU Atoms c_myHeight c_myNtype[1] c_myNtype[2] c_myNtype[3] c_myMass[1] c_myMass[2] c_myMass[3] 
   12007            0      600 3.5131111e-05            0          400          200 3.9603831e-12 2.4415076e-12 1.5188755e-12 
   12012 0.00044798851      600 3.5294692e-05            0          400          200 3.9603831e-12 2.4415076e-12 1.5188755e-12 
   13013  0.046887159      600 3.6305101e-05            0          400          200 3.9603831e-12 2.4415076e-12 1.5188755e-12 
   14007  0.080104113      600 3.6426499e-05            0          400          200 3.9603831e-12 2.4415076e-12 1.5188755e-12 
Loop time of 0.0801239 on 4 procs for 2000 steps with 600 atoms

99.9% CPU use with 4 MPI tasks x no OpenMP threads
timestep 1440
fix_modify k1 demflag 0
fix_modify d1 demflag 0
fix_modify vf1 demflag 0
Step CPU Atoms c_myHeight c_myNtype[1] c_myNtype[2] c_myNtype[3] c_myMass[1] c_myMass[2] c_myMass[3] 
   14007            0      600 3.6426499e-05            0          400          200 3.9603831e-12 2.4415076e-12 1.5188755e-12 
number of iterations: 1388 
maxz = 4.595417e-05 
S-sub-bulk = 2.347995e-02
S-sub-base = 2.379000e-02
S-nh4-bulk = 3.098326e-04
S-nh4-base = 2.690729e-04

   14008  0.061816931      600 3.6440319e-05            0          400          200 4.1571103e-12 2.6304183e-12 1.5266921e-12 
Loop time of 0.0618303 on 4 procs for 1 steps with 600 atoms

99.9% CPU use with 4 MPI tasks x no OpenMP threads
fix_modify k1 demflag 1
fix_modify d1 demflag 1
fix_modify vf1 demflag 1
timestep 0.1
run 2000 pre no post no
Step CPU Atoms c_myHeight c_myNtype[1] c_myNtype[2] c_myNtype[3] c_myMass[1] c_myMass[2] c_myMass[3] 
   14008            0      600 3.6440319e-05            0          400          200 4.1571103e-12 2.6304183e-12 1.5266921e-12 
   14014 0.0007379055      600 3.6665308e-05            0          400          200 4.1571103e-12 2.6304183e-12 1.5266921e-12 
   15015   0.05287385      600 3.7489017e-05            0          400          200 4.1571103e-12 2.6304183e-12 1.5266921e-12 
   16008  0.090098858      600 3.7710203e-05            0          400          200 4.1571103e-12 2.6304183e-12 1.5266921e-12 
Loop time of 0.0901177 on 4 procs for 2000 steps with 600 atoms

99.9% CPU use with 4 MPI tasks x no OpenMP threads
timestep 1440
fix_modify k1 demflag 0
fix_modify d1 demflag 0
fix_modify vf1 demflag 0
Step CPU Atoms c_myHeight c_myNtype[1] c_myNtype[2] c_myNtype[3] c_myMass[1] c_myMass[2] c_myMass[3] 
   16008            0      600 3.7710203e-05            0          400          200 4.1571103e-12 2.6304183e-12 1.5266921e-12 
number of iterations: 1392 
maxz = 4.747584e-05 
S-sub-bulk = 2.288819e-02
S-sub-base = 2.317074e-02
S-nh4-bulk = 3.075155e-04
S-nh4-base = 2.675420e-04

   16009  0.059736967      600 3.7777134e-05            0          400          200 4.3676272e-12 2.833118e-12 1.5345093e-12 
Loop time of 0.0597501 on 4 procs for 1 steps with 600 atoms

99.9% CPU use with 4 MPI tasks x no OpenMP threads
fix_modify k1 demflag 1
fix_modify d1 demflag 1
fix_modify vf1 demflag 1
timestep 0.1
run 2000 pre no post no
Step CPU Atoms c_myHeight c_myNtype[1] c_myNtype[2] c_myNtype[3] c_myMass[1] c_myMass[2] c_myMass[3] 
   16009            0      600 3.7777134e-05            0          400          200 4.3676272e-12 2.833118e-12 1.5345093e-12 
   16016 0.00074195862      600 3.7976076e-05            0          400          200 4.3676272e-12 2.833118e-12 1.5345093e-12 
   17017  0.050384998      600 3.9033239e-05            0          400          200 4.3676272e-12 2.833118e-12 1.5345093e-12 
   18009  0.084388971      600 3.9100515e-05            0          400          200 4.3676272e-12 2.833118e-12 1.5345093e-12 
Loop time of 0.0844061 on 4 procs for 2000 steps with 600 atoms

99.9% CPU use with 4 MPI tasks x no OpenMP threads
timestep 1440
fix_modify k1 demflag 0
fix_modify d1 demflag 0
fix_modify vf1 demflag 0
Step CPU Atoms c_myHeight c_myNtype[1] c_myNtype[2] c_myNtype[3] c_myMass[1] c_myMass[2] c_myMass[3] 
   18009            0      600 3.9100515e-05            0          400          200 4.3676272e-12 2.833118e-12 1.5345093e-12 
number of iterations: 1412 
maxz = 4.815647e-05 
S-sub-bulk = 2.228440e-02
S-sub-base = 2.255339e-02
S-nh4-bulk = 3.047695e-04
S-nh4-base = 2.664446e-04

   18010  0.062196016      628 3.9358227e-05            0          428          200 4.5928564e-12 3.0505112e-12 1.5423452e-12 
Loop time of 0.0622122 on 4 procs for 1 steps with 628 atoms

99.9% CPU use with 4 MPI tasks x no OpenMP threads
fix_modify k1 demflag 1
fix_modify d1 demflag 1
fix_modify vf1 demflag 1
timestep 0.1
run 2000 pre no post no
Step CPU Atoms c_myHeight c_myNtype[1] c_myNtype[2] c_myNtype[3] c_myMass[1] c_myMass[2] c_myMass[3] 
   18010            0      628 3.9358227e-05            0          428          200 4.5928564e-12 3.0505112e-12 1.5423452e-12 
   18018 0.00082707405      628 3.9594752e-05            0          428          200 4.5928564e-12 3.0505112e-12 1.5423452e-12 
   19019  0.053766012      628 4.1351928e-05            0          428          200 4.5928564e-12 3.0505112e-12 1.5423452e-12 
   20010  0.087218046      628 4.1450607e-05            0          428          200 4.5928564e-12 3.0505112e-12 1.5423452e-12 
Loop time of 0.0872328 on 4 procs for 2000 steps with 628 atoms

99.9% CPU use with 4 MPI tasks x no OpenMP threads
timestep 1440
fix_modify k1 demflag 0
fix_modify d1 demflag 0
fix_modify vf1 demflag 0
Step CPU Atoms c_myHeight c_myNtype[1] c_myNtype[2] c_myNtype[3] c_myMass[1] c_myMass[2] c_myMass[3] 
   20010            0      628 4.1450607e-05            0          428          200 4.5928564e-12 3.0505112e-12 1.5423452e-12 
number of iterations: 1440 
maxz = 5.281085e-05 
S-sub-bulk = 2.166084e-02
S-sub-base = 2.192903e-02
S-nh4-bulk = 3.021079e-04
S-nh4-base = 2.650323e-04

   20011  0.065375805      717 4.1737108e-05            0          517          200 4.833721e-12 3.2835355e-12 1.5501856e-12 
Loop time of 0.0653929 on 4 procs for 1 steps with 717 atoms

99.9% CPU use with 4 MPI tasks x no OpenMP threads
fix_modify k1 demflag 1
fix_modify d1 demflag 1
fix_modify vf1 demflag 1
timestep 0.1
run 2000 pre no post no
Step CPU Atoms c_myHeight c_myNtype[1] c_myNtype[2] c_myNtype[3] c_myMass[1] c_myMass[2] c_myMass[3] 
   20011            0      717 4.1737108e-05            0          517          200 4.833721e-12 3.2835355e-12 1.5501856e-12 
   20020 0.0010910034      717 4.2346934e-05            0          517          200 4.833721e-12 3.2835355e-12 1.5501856e-12 
   21021   0.05856514      717 4.4279739e-05            0          517          200 4.833721e-12 3.2835355e-12 1.5501856e-12 
   22011  0.094638109      717 4.4260219e-05            0          517          200 4.833721e-12 3.2835355e-12 1.5501856e-12 
Loop time of 0.094655 on 4 procs for 2000 steps with 717 atoms

99.9% CPU use with 4 MPI tasks x no OpenMP threads
timestep 1440
fix_modify k1 demflag 0
fix_modify d1 demflag 0
fix_modify vf1 demflag 0
Step CPU Atoms c_myHeight c_myNtype[1] c_myNtype[2] c_myNtype[3] c_myMass[1] c_myMass[2] c_myMass[3] 
   22011            0      717 4.4260219e-05            0          517          200 4.833721e-12 3.2835355e-12 1.5501856e-12 
number of iterations: 1979 
maxz = 5.619715e-05 
S-sub-bulk = 2.101528e-02
S-sub-base = 2.114418e-02
S-nh4-bulk = 3.101860e-04
S-nh4-base = 2.526675e-04

   22012   0.10013008      786 4.4499143e-05            0          586          200 5.0904476e-12 3.5328005e-12 1.5576471e-12 
Loop time of 0.100147 on 4 procs for 1 steps with 786 atoms

99.9% CPU use with 4 MPI tasks x no OpenMP threads
fix_modify k1 demflag 1
fix_modify d1 demflag 1
fix_modify vf1 demflag 1
timestep 0.1
run 2000 pre no post no
Step CPU Atoms c_myHeight c_myNtype[1] c_myNtype[2] c_myNtype[3] c_myMass[1] c_myMass[2] c_myMass[3] 
   22012            0      786 4.4499143e-05            0          586          200 5.0904476e-12 3.5328005e-12 1.5576471e-12 
   22022 0.0012748241      786 4.4928108e-05            0          586          200 5.0904476e-12 3.5328005e-12 1.5576471e-12 
   23023  0.065923929      786 4.6372876e-05            0          586          200 5.0904476e-12 3.5328005e-12 1.5576471e-12 
   24012   0.10334897      786 4.6556661e-05            0          586          200 5.0904476e-12 3.5328005e-12 1.5576471e-12 
Loop time of 0.103367 on 4 procs for 2000 steps with 786 atoms

99.9% CPU use with 4 MPI tasks x no OpenMP threads
timestep 1440
fix_modify k1 demflag 0
fix_modify d1 demflag 0
fix_modify vf1 demflag 0
Step CPU Atoms c_myHeight c_myNtype[1] c_myNtype[2] c_myNtype[3] c_myMass[1] c_myMass[2] c_myMass[3] 
   24012            0      786 4.6556661e-05            0          586          200 5.0904476e-12 3.5328005e-12 1.5576471e-12 
number of iterations: 1855 
maxz = 5.818914e-05 
S-sub-bulk = 2.033970e-02
S-sub-base = 2.046842e-02
S-nh4-bulk = 3.072208e-04
S-nh4-base = 2.591481e-04

   24013  0.090776205      841 4.666976e-05            0          641          200 5.3649191e-12 3.7995082e-12 1.5654109e-12 
Loop time of 0.0907927 on 4 procs for 1 steps with 841 atoms

99.9% CPU use with 4 MPI tasks x no OpenMP threads
fix_modify k1 demflag 1
fix_modify d1 demflag 1
fix_modify vf1 demflag 1
timestep 0.1
run 2000 pre no post no
Step CPU Atoms c_myHeight c_myNtype[1] c_myNtype[2] c_myNtype[3] c_myMass[1] c_myMass[2] c_myMass[3] 
   24013            0      841 4.666976e-05            0          641          200 5.3649191e-12 3.7995082e-12 1.5654109e-12 
   24024 0.0014631748      841 4.7097358e-05            0          641          200 5.3649191e-12 3.7995082e-12 1.5654109e-12 
   25025  0.074623108      841 4.8284369e-05            0          641          200 5.3649191e-12 3.7995082e-12 1.5654109e-12 
   26013    0.1168921      841 4.8298982e-05            0          641          200 5.3649191e-12 3.7995082e-12 1.5654109e-12 
Loop time of 0.116914 on 4 procs for 2000 steps with 841 atoms

99.1% CPU use with 4 MPI tasks x no OpenMP threads
timestep 1440
fix_modify k1 demflag 0
fix_modify d1 demflag 0
fix_modify vf1 demflag 0
Step CPU Atoms c_myHeight c_myNtype[1] c_myNtype[2] c_myNtype[3] c_myMass[1] c_myMass[2] c_myMass[3] 
   26013            0      841 4.8298982e-05            0          641          200 5.3649191e-12 3.7995082e-12 1.5654109e-12 
number of iterations: 1946 
maxz = 5.918099e-05 
S-sub-bulk = 1.963123e-02
S-sub-base = 1.975023e-02
S-nh4-bulk = 3.041875e-04
S-nh4-base = 2.580856e-04

   26014  0.097234011      904 4.8740178e-05            0          704          200 5.6577576e-12 4.0845708e-12 1.5731868e-12 
Loop time of 0.0972495 on 4 procs for 1 steps with 904 atoms

99.9% CPU use with 4 MPI tasks x no OpenMP threads
fix_modify k1 demflag 1
fix_modify d1 demflag 1
fix_modify vf1 demflag 1
timestep 0.1
run 2000 pre no post no
Step CPU Atoms c_myHeight c_myNtype[1] c_myNtype[2] c_myNtype[3] c_myMass[1] c_myMass[2] c_myMass[3] 
   26014            0      904 4.8740178e-05            0          704          200 5.6577576e-12 4.0845708e-12 1.5731868e-12 
   26026 0.0019361973      904 4.9146087e-05            0          704          200 5.6577576e-12 4.0845708e-12 1.5731868e-12 
   27027  0.085544109      904 5.0956105e-05            0          704          200 5.6577576e-12 4.0845708e-12 1.5731868e-12 
   28014   0.14195299      904 5.1298918e-05            0          704          200 5.6577576e-12 4.0845708e-12 1.5731868e-12 
Loop time of 0.141974 on 4 procs for 2000 steps with 904 atoms

99.9% CPU use with 4 MPI tasks x no OpenMP threads
timestep 1440
fix_modify k1 demflag 0
fix_modify d1 demflag 0
fix_modify vf1 demflag 0
Step CPU Atoms c_myHeight c_myNtype[1] c_myNtype[2] c_myNtype[3] c_myMass[1] c_myMass[2] c_myMass[3] 
   28014            0      904 5.1298918e-05            0          704          200 5.6577576e-12 4.0845708e-12 1.5731868e-12 
number of iterations: 2017 
maxz = 6.133257e-05 
S-sub-bulk = 1.888723e-02
S-sub-base = 1.900867e-02
S-nh4-bulk = 3.015031e-04
S-nh4-base = 2.562432e-04

   28015   0.10970092      968 5.1597049e-05            0          768          200 5.9699055e-12 4.388945e-12 1.5809605e-12 
Loop time of 0.109717 on 4 procs for 1 steps with 968 atoms

99.9% CPU use with 4 MPI tasks x no OpenMP threads
fix_modify k1 demflag 1
fix_modify d1 demflag 1
fix_modify vf1 demflag 1
timestep 0.1
run 2000 pre no post no
Step CPU Atoms c_myHeight c_myNtype[1] c_myNtype[2] c_myNtype[3] c_myMass[1] c_myMass[2] c_myMass[3] 
   28015            0      968 5.1597049e-05            0          768          200 5.9699055e-12 4.388945e-12 1.5809605e-12 
   28028 0.0023128986      968 5.2340709e-05            0          768          200 5.9699055e-12 4.388945e-12 1.5809605e-12 
   29029  0.093569994      968 5.3846932e-05            0          768          200 5.9699055e-12 4.388945e-12 1.5809605e-12 
   30015   0.15808702      968 5.4003498e-05            0          768          200 5.9699055e-12 4.388945e-12 1.5809605e-12 
Loop time of 0.158109 on 4 procs for 2000 steps with 968 atoms

99.9% CPU use with 4 MPI tasks x no OpenMP threads
timestep 1440
fix_modify k1 demflag 0
fix_modify d1 demflag 0
fix_modify vf1 demflag 0
Step CPU Atoms c_myHeight c_myNtype[1] c_myNtype[2] c_myNtype[3] c_myMass[1] c_myMass[2] c_myMass[3] 
   30015            0      968 5.4003498e-05            0          768          200 5.9699055e-12 4.388945e-12 1.5809605e-12 
number of iterations: 2789 
maxz = 6.325237e-05 
S-sub-bulk = 1.811509e-02
S-sub-base = 1.802558e-02
S-nh4-bulk = 3.097455e-04
S-nh4-base = 2.440796e-04

   30016   0.15639591     1000 5.4066774e-05            0          800          200 6.3010535e-12 4.7127043e-12 1.5883492e-12 
Loop time of 0.156408 on 4 procs for 1 steps with 1000 atoms

99.9% CPU use with 4 MPI tasks x no OpenMP threads
fix_modify k1 demflag 1
fix_modify d1 demflag 1
fix_modify vf1 demflag 1
timestep 0.1
run 2000 pre no post no
Step CPU Atoms c_myHeight c_myNtype[1] c_myNtype[2] c_myNtype[3] c_myMass[1] c_myMass[2] c_myMass[3] 
   30016            0     1000 5.4066774e-05            0          800          200 6.3010535e-12 4.7127043e-12 1.5883492e-12 
   30030 0.0022540092     1000 5.4430716e-05            0          800          200 6.3010535e-12 4.7127043e-12 1.5883492e-12 
   31031  0.098117113     1000 5.5986164e-05            0          800          200 6.3010535e-12 4.7127043e-12 1.5883492e-12 
   32016   0.16260004     1000 5.6330132e-05            0          800          200 6.3010535e-12 4.7127043e-12 1.5883492e-12 
Loop time of 0.16262 on 4 procs for 2000 steps with 1000 atoms

99.9% CPU use with 4 MPI tasks x no OpenMP threads
timestep 1440
fix_modify k1 demflag 0
fix_modify d1 demflag 0
fix_modify vf1 demflag 0
Step CPU Atoms c_myHeight c_myNtype[1] c_myNtype[2] c_myNtype[3] c_myMass[1] c_myMass[2] c_myMass[3] 
   32016            0     1000 5.6330132e-05            0          800          200 6.3010535e-12 4.7127043e-12 1.5883492e-12 
number of iterations: 2593 
maxz = 6.483067e-05 
S-sub-bulk = 1.730622e-02
S-sub-base = 1.720624e-02
S-nh4-bulk = 3.067789e-04
S-nh4-base = 2.506675e-04

   32017   0.14309692     1000 5.6440848e-05            0          800          200 6.6532821e-12 5.0572373e-12 1.5960448e-12 
Loop time of 0.143113 on 4 procs for 1 steps with 1000 atoms

99.9% CPU use with 4 MPI tasks x no OpenMP threads
fix_modify k1 demflag 1
fix_modify d1 demflag 1
fix_modify vf1 demflag 1
timestep 0.1
run 2000 pre no post no
Step CPU Atoms c_myHeight c_myNtype[1] c_myNtype[2] c_myNtype[3] c_myMass[1] c_myMass[2] c_myMass[3] 
   32017            0     1000 5.6440848e-05            0          800          200 6.6532821e-12 5.0572373e-12 1.5960448e-12 
   32032 0.0020890236     1000 5.6695892e-05            0          800          200 6.6532821e-12 5.0572373e-12 1.5960448e-12 
   33033  0.096402168     1000 5.7902579e-05            0          800          200 6.6532821e-12 5.0572373e-12 1.5960448e-12 
   34017   0.17208719     1000 5.8574827e-05            0          800          200 6.6532821e-12 5.0572373e-12 1.5960448e-12 
Loop time of 0.172104 on 4 procs for 2000 steps with 1000 atoms

99.9% CPU use with 4 MPI tasks x no OpenMP threads
timestep 1440
fix_modify k1 demflag 0
fix_modify d1 demflag 0
fix_modify vf1 demflag 0
Step CPU Atoms c_myHeight c_myNtype[1] c_myNtype[2] c_myNtype[3] c_myMass[1] c_myMass[2] c_myMass[3] 
   34017            0     1000 5.8574827e-05            0          800          200 6.6532821e-12 5.0572373e-12 1.5960448e-12 
number of iterations: 2719 
maxz = 6.721865e-05 
S-sub-bulk = 1.646182e-02
S-sub-base = 1.634838e-02
S-nh4-bulk = 3.036880e-04
S-nh4-base = 2.496742e-04

   34018    0.1521101     1020 5.8628981e-05            0          820          200 7.0269728e-12 5.423218e-12 1.6037548e-12 
Loop time of 0.152126 on 4 procs for 1 steps with 1020 atoms

99.9% CPU use with 4 MPI tasks x no OpenMP threads
fix_modify k1 demflag 1
fix_modify d1 demflag 1
fix_modify vf1 demflag 1
timestep 0.1
run 2000 pre no post no
Step CPU Atoms c_myHeight c_myNtype[1] c_myNtype[2] c_myNtype[3] c_myMass[1] c_myMass[2] c_myMass[3] 
   34018            0     1020 5.8628981e-05            0          820          200 7.0269728e-12 5.423218e-12 1.6037548e-12 
   34034 0.0028400421     1020 5.9243102e-05            0          820          200 7.0269728e-12 5.423218e-12 1.6037548e-12 
   35035   0.10270309     1020 6.1137127e-05            0          820          200 7.0269728e-12 5.423218e-12 1.6037548e-12 
   36018    0.1796422     1020 6.1577229e-05            0          820          200 7.0269728e-12 5.423218e-12 1.6037548e-12 
Loop time of 0.179662 on 4 procs for 2000 steps with 1020 atoms

99.9% CPU use with 4 MPI tasks x no OpenMP threads
timestep 1440
fix_modify k1 demflag 0
fix_modify d1 demflag 0
fix_modify vf1 demflag 0
Step CPU Atoms c_myHeight c_myNtype[1] c_myNtype[2] c_myNtype[3] c_myMass[1] c_myMass[2] c_myMass[3] 
   36018            0     1020 6.1577229e-05            0          820          200 7.0269728e-12 5.423218e-12 1.6037548e-12 
number of iterations: 2840 
maxz = 7.304390e-05 
S-sub-bulk = 1.558361e-02
S-sub-base = 1.546514e-02
S-nh4-bulk = 3.003467e-04
S-nh4-base = 2.481518e-04

   36019   0.16068888     1088 6.1863193e-05            0          888          200 7.4227221e-12 5.8112374e-12 1.6114847e-12 
Loop time of 0.160704 on 4 procs for 1 steps with 1088 atoms

99.9% CPU use with 4 MPI tasks x no OpenMP threads
fix_modify k1 demflag 1
fix_modify d1 demflag 1
fix_modify vf1 demflag 1
timestep 0.1
run 2000 pre no post no
Step CPU Atoms c_myHeight c_myNtype[1] c_myNtype[2] c_myNtype[3] c_myMass[1] c_myMass[2] c_myMass[3] 
   36019            0     1088 6.1863193e-05            0          888          200 7.4227221e-12 5.8112374e-12 1.6114847e-12 
   36036  0.003057003     1088 6.2621668e-05            0          888          200 7.4227221e-12 5.8112374e-12 1.6114847e-12 
   37037   0.11183596     1088 6.430201e-05            0          888          200 7.4227221e-12 5.8112374e-12 1.6114847e-12 
   38019   0.19108295     1088 6.477154e-05            0          888          200 7.4227221e-12 5.8112374e-12 1.6114847e-12 
Loop time of 0.1911 on 4 procs for 2000 steps with 1088 atoms

99.9% CPU use with 4 MPI tasks x no OpenMP threads
timestep 1440
fix_modify k1 demflag 0
fix_modify d1 demflag 0
fix_modify vf1 demflag 0
Step CPU Atoms c_myHeight c_myNtype[1] c_myNtype[2] c_myNtype[3] c_myMass[1] c_myMass[2] c_myMass[3] 
   38019            0     1088 6.477154e-05            0          888          200 7.4227221e-12 5.8112374e-12 1.6114847e-12 
number of iterations: 3929 
maxz = 7.557009e-05 
S-sub-bulk = 1.469670e-02
S-sub-base = 1.426495e-02
S-nh4-bulk = 3.078347e-04
S-nh4-base = 2.363127e-04

   38020   0.23741889     1157 6.497904e-05            0          957          200 7.8384757e-12 6.219636e-12 1.6188397e-12 
Loop time of 0.237432 on 4 procs for 1 steps with 1157 atoms

99.9% CPU use with 4 MPI tasks x no OpenMP threads
fix_modify k1 demflag 1
fix_modify d1 demflag 1
fix_modify vf1 demflag 1
timestep 0.1
run 2000 pre no post no
Step CPU Atoms c_myHeight c_myNtype[1] c_myNtype[2] c_myNtype[3] c_myMass[1] c_myMass[2] c_myMass[3] 
   38020            0     1157 6.497904e-05            0          957          200 7.8384757e-12 6.219636e-12 1.6188397e-12 
   38038 0.0036871433     1157 6.5747669e-05            0          957          200 7.8384757e-12 6.219636e-12 1.6188397e-12 
   39039   0.12640214     1157 6.7476747e-05            0          957          200 7.8384757e-12 6.219636e-12 1.6188397e-12 
   40020   0.22029305     1157 6.7916327e-05            0          957          200 7.8384757e-12 6.219636e-12 1.6188397e-12 
Loop time of 0.220313 on 4 procs for 2000 steps with 1157 atoms

99.9% CPU use with 4 MPI tasks x no OpenMP threads
timestep 1440
fix_modify k1 demflag 0
fix_modify d1 demflag 0
fix_modify vf1 demflag 0
Step CPU Atoms c_myHeight c_myNtype[1] c_myNtype[2] c_myNtype[3] c_myMass[1] c_myMass[2] c_myMass[3] 
   40020            0     1157 6.7916327e-05            0          957          200 7.8384757e-12 6.219636e-12 1.6188397e-12 
number of iterations: 3574 
maxz = 7.922180e-05 
S-sub-bulk = 1.378426e-02
S-sub-base = 1.333237e-02
S-nh4-bulk = 3.034158e-04
S-nh4-base = 2.432462e-04

   40021     0.220608     1245 6.8267617e-05            0         1045          200 8.2766161e-12 6.6500822e-12 1.6265339e-12 
Loop time of 0.220624 on 4 procs for 1 steps with 1245 atoms

99.5% CPU use with 4 MPI tasks x no OpenMP threads
fix_modify k1 demflag 1
fix_modify d1 demflag 1
fix_modify vf1 demflag 1
timestep 0.1
run 2000 pre no post no
Step CPU Atoms c_myHeight c_myNtype[1] c_myNtype[2] c_myNtype[3] c_myMass[1] c_myMass[2] c_myMass[3] 
   40021            0     1245 6.8267617e-05            0         1045          200 8.2766161e-12 6.6500822e-12 1.6265339e-12 
   40040 0.0041189194     1245 6.9131347e-05            0         1045          200 8.2766161e-12 6.6500822e-12 1.6265339e-12 
   41041   0.13918781     1245 7.1077754e-05            0         1045          200 8.2766161e-12 6.6500822e-12 1.6265339e-12 
   42021   0.24468589     1245 7.1825775e-05            0         1045          200 8.2766161e-12 6.6500822e-12 1.6265339e-12 
Loop time of 0.244705 on 4 procs for 2000 steps with 1245 atoms

99.9% CPU use with 4 MPI tasks x no OpenMP threads
timestep 1440
fix_modify k1 demflag 0
fix_modify d1 demflag 0
fix_modify vf1 demflag 0
Step CPU Atoms c_myHeight c_myNtype[1] c_myNtype[2] c_myNtype[3] c_myMass[1] c_myMass[2] c_myMass[3] 
   42021            0     1245 7.1825775e-05            0         1045          200 8.2766161e-12 6.6500822e-12 1.6265339e-12 
number of iterations: 3728 
maxz = 8.438756e-05 
S-sub-bulk = 1.285352e-02
S-sub-base = 1.238936e-02
S-nh4-bulk = 2.992656e-04
S-nh4-base = 2.418026e-04

   42022   0.23500204     1381 7.2185387e-05            0         1181          200 8.736634e-12 7.102392e-12 1.6342419e-12 
Loop time of 0.235016 on 4 procs for 1 steps with 1381 atoms

99.8% CPU use with 4 MPI tasks x no OpenMP threads
fix_modify k1 demflag 1
fix_modify d1 demflag 1
fix_modify vf1 demflag 1
timestep 0.1
run 2000 pre no post no
Step CPU Atoms c_myHeight c_myNtype[1] c_myNtype[2] c_myNtype[3] c_myMass[1] c_myMass[2] c_myMass[3] 
   42022            0     1381 7.2185387e-05            0         1181          200 8.736634e-12 7.102392e-12 1.6342419e-12 
   42042 0.0047268867     1381 7.3290454e-05            0         1181          200 8.736634e-12 7.102392e-12 1.6342419e-12 
   43043   0.15690088     1381 7.5157007e-05            0         1181          200 8.736634e-12 7.102392e-12 1.6342419e-12 
   44022   0.27534199     1381 7.5798329e-05            0         1181          200 8.736634e-12 7.102392e-12 1.6342419e-12 
Loop time of 0.275362 on 4 procs for 2000 steps with 1381 atoms

99.9% CPU use with 4 MPI tasks x no OpenMP threads
timestep 1440
fix_modify k1 demflag 0
fix_modify d1 demflag 0
fix_modify vf1 demflag 0
Step CPU Atoms c_myHeight c_myNtype[1] c_myNtype[2] c_myNtype[3] c_myMass[1] c_myMass[2] c_myMass[3] 
   44022            0     1381 7.5798329e-05            0         1181          200 8.736634e-12 7.102392e-12 1.6342419e-12 
number of iterations: 5000 
maxz = 8.882232e-05 
S-sub-bulk = 1.195570e-02
S-sub-base = 1.111165e-02
S-nh4-bulk = 3.075688e-04
S-nh4-base = 2.291319e-04

   44023   0.34054995     1499 7.618838e-05            0         1299          200 9.2135752e-12 7.5720505e-12 1.6415246e-12 
Loop time of 0.340566 on 4 procs for 1 steps with 1499 atoms

99.9% CPU use with 4 MPI tasks x no OpenMP threads
fix_modify k1 demflag 1
fix_modify d1 demflag 1
fix_modify vf1 demflag 1
timestep 0.1
run 2000 pre no post no
Step CPU Atoms c_myHeight c_myNtype[1] c_myNtype[2] c_myNtype[3] c_myMass[1] c_myMass[2] c_myMass[3] 
   44023            0     1499 7.618838e-05            0         1299          200 9.2135752e-12 7.5720505e-12 1.6415246e-12 
   44044 0.0057091713     1499 7.7257406e-05            0         1299          200 9.2135752e-12 7.5720505e-12 1.6415246e-12 
   45045   0.17425799     1499 7.9105619e-05            0         1299          200 9.2135752e-12 7.5720505e-12 1.6415246e-12 
   46023   0.30844903     1499 7.9660706e-05            0         1299          200 9.2135752e-12 7.5720505e-12 1.6415246e-12 
Loop time of 0.308469 on 4 procs for 2000 steps with 1499 atoms

99.7% CPU use with 4 MPI tasks x no OpenMP threads
timestep 1440
fix_modify k1 demflag 0
fix_modify d1 demflag 0
fix_modify vf1 demflag 0
Step CPU Atoms c_myHeight c_myNtype[1] c_myNtype[2] c_myNtype[3] c_myMass[1] c_myMass[2] c_myMass[3] 
   46023            0     1499 7.9660706e-05            0         1299          200 9.2135752e-12 7.5720505e-12 1.6415246e-12 
number of iterations: 4590 
maxz = 9.182282e-05 
S-sub-bulk = 1.106072e-02
S-sub-base = 1.016450e-02
S-nh4-bulk = 3.025210e-04
S-nh4-base = 2.367283e-04

   46024   0.31351686     1591 7.9868167e-05            0         1391          200 9.7101416e-12 8.0609509e-12 1.6491907e-12 
Loop time of 0.313532 on 4 procs for 1 steps with 1591 atoms

99.9% CPU use with 4 MPI tasks x no OpenMP threads
fix_modify k1 demflag 1
fix_modify d1 demflag 1
fix_modify vf1 demflag 1
timestep 0.1
run 2000 pre no post no
Step CPU Atoms c_myHeight c_myNtype[1] c_myNtype[2] c_myNtype[3] c_myMass[1] c_myMass[2] c_myMass[3] 
   46024            0     1591 7.9868167e-05            0         1391          200 9.7101416e-12 8.0609509e-12 1.6491907e-12 
   46046 0.0061979294     1591 8.0767964e-05            0         1391          200 9.7101416e-12 8.0609509e-12 1.6491907e-12 
   47047   0.18745208     1591 8.2432669e-05            0         1391          200 9.7101416e-12 8.0609509e-12 1.6491907e-12 
   48024   0.33344698     1591 8.3440593e-05            0         1391          200 9.7101416e-12 8.0609509e-12 1.6491907e-12 
Loop time of 0.333468 on 4 procs for 2000 steps with 1591 atoms

99.9% CPU use with 4 MPI tasks x no OpenMP threads
timestep 1440
fix_modify k1 demflag 0
fix_modify d1 demflag 0
fix_modify vf1 demflag 0
Step CPU Atoms c_myHeight c_myNtype[1] c_myNtype[2] c_myNtype[3] c_myMass[1] c_myMass[2] c_myMass[3] 
   48024            0     1591 8.3440593e-05            0         1391          200 9.7101416e-12 8.0609509e-12 1.6491907e-12 
number of iterations: 5000 
maxz = 9.681751e-05 
S-sub-bulk = 1.023332e-02
S-sub-base = 9.012229e-03
S-nh4-bulk = 3.102349e-04
S-nh4-base = 2.246175e-04

   48025   0.36865187     1660 8.3341625e-05            0         1460          200 1.0219218e-11 8.5627891e-12 1.6564292e-12 
Loop time of 0.368668 on 4 procs for 1 steps with 1660 atoms

99.9% CPU use with 4 MPI tasks x no OpenMP threads
fix_modify k1 demflag 1
fix_modify d1 demflag 1
fix_modify vf1 demflag 1
timestep 0.1
run 2000 pre no post no
Step CPU Atoms c_myHeight c_myNtype[1] c_myNtype[2] c_myNtype[3] c_myMass[1] c_myMass[2] c_myMass[3] 
   48025            0     1660 8.3341625e-05            0         1460          200 1.0219218e-11 8.5627891e-12 1.6564292e-12 
   48048 0.0067601204     1660 8.4350552e-05            0         1460          200 1.0219218e-11 8.5627891e-12 1.6564292e-12 
   49049    0.1998601     1660 8.6329738e-05            0         1460          200 1.0219218e-11 8.5627891e-12 1.6564292e-12 
   50025   0.36146617     1660 8.7144723e-05            0         1460          200 1.0219218e-11 8.5627891e-12 1.6564292e-12 
Loop time of 0.361486 on 4 procs for 2000 steps with 1660 atoms

99.9% CPU use with 4 MPI tasks x no OpenMP threads
timestep 1440
fix_modify k1 demflag 0
fix_modify d1 demflag 0
fix_modify vf1 demflag 0
Step CPU Atoms c_myHeight c_myNtype[1] c_myNtype[2] c_myNtype[3] c_myMass[1] c_myMass[2] c_myMass[3] 
   50025            0     1660 8.7144723e-05            0         1460          200 1.0219218e-11 8.5627891e-12 1.6564292e-12 
number of iterations: 5000 
maxz = 1.001354e-04 
S-sub-bulk = 9.443153e-03
S-sub-base = 8.082465e-03
S-nh4-bulk = 3.061444e-04
S-nh4-base = 2.306920e-04

   50026   0.37077498     1735 8.7379282e-05            0         1526          209 1.074264e-11 9.0786386e-12 1.6640012e-12 
Loop time of 0.370791 on 4 procs for 1 steps with 1735 atoms

99.9% CPU use with 4 MPI tasks x no OpenMP threads
fix_modify k1 demflag 1
fix_modify d1 demflag 1
fix_modify vf1 demflag 1
timestep 0.1
run 2000 pre no post no
Step CPU Atoms c_myHeight c_myNtype[1] c_myNtype[2] c_myNtype[3] c_myMass[1] c_myMass[2] c_myMass[3] 
   50026            0     1735 8.7379282e-05            0         1526          209 1.074264e-11 9.0786386e-12 1.6640012e-12 
   50050 0.0078611374     1735 8.8116851e-05            0         1526          209 1.074264e-11 9.0786386e-12 1.6640012e-12 
   51051   0.21578217     1735 8.9989042e-05            0         1526          209 1.074264e-11 9.0786386e-12 1.6640012e-12 
   52026   0.38989115     1735 9.0748357e-05            0         1526          209 1.074264e-11 9.0786386e-12 1.6640012e-12 
Loop time of 0.38991 on 4 procs for 2000 steps with 1735 atoms

99.9% CPU use with 4 MPI tasks x no OpenMP threads
timestep 1440
fix_modify k1 demflag 0
fix_modify d1 demflag 0
fix_modify vf1 demflag 0
Step CPU Atoms c_myHeight c_myNtype[1] c_myNtype[2] c_myNtype[3] c_myMass[1] c_myMass[2] c_myMass[3] 
   52026            0     1735 9.0748357e-05            0         1526          209 1.074264e-11 9.0786386e-12 1.6640012e-12 
number of iterations: 5000 
maxz = 1.018460e-04 
S-sub-bulk = 8.761452e-03
S-sub-base = 7.083019e-03
S-nh4-bulk = 3.134327e-04
S-nh4-base = 2.200590e-04

   52027   0.40061712     1821 9.1076602e-05            0         1587          234 1.1271939e-11 9.6007525e-12 1.6711864e-12 
Loop time of 0.400634 on 4 procs for 1 steps with 1821 atoms

99.9% CPU use with 4 MPI tasks x no OpenMP threads
fix_modify k1 demflag 1
fix_modify d1 demflag 1
fix_modify vf1 demflag 1
timestep 0.1
run 2000 pre no post no
Step CPU Atoms c_myHeight c_myNtype[1] c_myNtype[2] c_myNtype[3] c_myMass[1] c_myMass[2] c_myMass[3] 
   52027            0     1821 9.1076602e-05            0         1587          234 1.1271939e-11 9.6007525e-12 1.6711864e-12 
   52052 0.0083699226     1821 9.2107855e-05            0         1587          234 1.1271939e-11 9.6007525e-12 1.6711864e-12 
   53053    0.2352879     1821 9.4256219e-05            0         1587          234 1.1271939e-11 9.6007525e-12 1.6711864e-12 
   54027   0.41873503     1821 9.5030861e-05            0         1587          234 1.1271939e-11 9.6007525e-12 1.6711864e-12 
Loop time of 0.418755 on 4 procs for 2000 steps with 1821 atoms

99.9% CPU use with 4 MPI tasks x no OpenMP threads
timestep 1440
fix_modify k1 demflag 0
fix_modify d1 demflag 0
fix_modify vf1 demflag 0
Step CPU Atoms c_myHeight c_myNtype[1] c_myNtype[2] c_myNtype[3] c_myMass[1] c_myMass[2] c_myMass[3] 
   54027            0     1821 9.5030861e-05            0         1587          234 1.1271939e-11 9.6007525e-12 1.6711864e-12 
number of iterations: 5000 
maxz = 1.066666e-04 
S-sub-bulk = 8.142054e-03
S-sub-base = 6.281718e-03
S-nh4-bulk = 3.101957e-04
S-nh4-base = 2.246221e-04

   54028   0.40386891     1912 9.5182779e-05            0         1640          272 1.1809376e-11 1.0130713e-11 1.6786634e-12 
Loop time of 0.403886 on 4 procs for 1 steps with 1912 atoms

99.9% CPU use with 4 MPI tasks x no OpenMP threads
fix_modify k1 demflag 1
fix_modify d1 demflag 1
fix_modify vf1 demflag 1
timestep 0.1
run 2000 pre no post no
Step CPU Atoms c_myHeight c_myNtype[1] c_myNtype[2] c_myNtype[3] c_myMass[1] c_myMass[2] c_myMass[3] 
   54028            0     1912 9.5182779e-05            0         1640          272 1.1809376e-11 1.0130713e-11 1.6786634e-12 
   54054 0.0088789463     1912 9.6393273e-05            0         1640          272 1.1809376e-11 1.0130713e-11 1.6786634e-12 
   55055   0.24306512     1912 9.7822903e-05            0         1640          272 1.1809376e-11 1.0130713e-11 1.6786634e-12 
   56028   0.44355011     1912 9.8316908e-05            0         1640          272 1.1809376e-11 1.0130713e-11 1.6786634e-12 
Loop time of 0.443569 on 4 procs for 2000 steps with 1912 atoms

99.9% CPU use with 4 MPI tasks x no OpenMP threads
timestep 1440
fix_modify k1 demflag 0
fix_modify d1 demflag 0
fix_modify vf1 demflag 0
Step CPU Atoms c_myHeight c_myNtype[1] c_myNtype[2] c_myNtype[3] c_myMass[1] c_myMass[2] c_myMass[3] 
   56028            0     1912 9.8316908e-05            0         1640          272 1.1809376e-11 1.0130713e-11 1.6786634e-12 
number of iterations: 5000 
maxz = 1.100949e-04 
S-sub-bulk = 7.573694e-03
S-sub-base = 5.622956e-03
S-nh4-bulk = 3.062002e-04
S-nh4-base = 2.241436e-04

   56029   0.40116596     2019 9.8425577e-05            0         1713          306 1.2354145e-11 1.0667964e-11 1.6861804e-12 
Loop time of 0.40118 on 4 procs for 1 steps with 2019 atoms

99.9% CPU use with 4 MPI tasks x no OpenMP threads
fix_modify k1 demflag 1
fix_modify d1 demflag 1
fix_modify vf1 demflag 1
timestep 0.1
run 2000 pre no post no
Step CPU Atoms c_myHeight c_myNtype[1] c_myNtype[2] c_myNtype[3] c_myMass[1] c_myMass[2] c_myMass[3] 
   56029            0     2019 9.8425577e-05            0         1713          306 1.2354145e-11 1.0667964e-11 1.6861804e-12 
   56056  0.010291815     2019 9.9588222e-05            0         1713          306 1.2354145e-11 1.0667964e-11 1.6861804e-12 
   57057   0.26136494     2019 0.00010111361            0         1713          306 1.2354145e-11 1.0667964e-11 1.6861804e-12 
   58029   0.47428083     2019 0.00010161953            0         1713          306 1.2354145e-11 1.0667964e-11 1.6861804e-12 
Loop time of 0.4743 on 4 procs for 2000 steps with 2019 atoms

99.9% CPU use with 4 MPI tasks x no OpenMP threads
timestep 1440
fix_modify k1 demflag 0
fix_modify d1 demflag 0
fix_modify vf1 demflag 0
Step CPU Atoms c_myHeight c_myNtype[1] c_myNtype[2] c_myNtype[3] c_myMass[1] c_myMass[2] c_myMass[3] 
   58029            0     2019 0.00010161953            0         1713          306 1.2354145e-11 1.0667964e-11 1.6861804e-12 
number of iterations: 5000 
maxz = 1.126020e-04 
S-sub-bulk = 7.180494e-03
S-sub-base = 4.866740e-03
S-nh4-bulk = 3.139876e-04
S-nh4-base = 2.134603e-04

   58030   0.43306088     2118 0.00010177511            0         1780          338 1.2892758e-11 1.1199463e-11 1.6932954e-12 
Loop time of 0.433078 on 4 procs for 1 steps with 2118 atoms

99.9% CPU use with 4 MPI tasks x no OpenMP threads
fix_modify k1 demflag 1
fix_modify d1 demflag 1
fix_modify vf1 demflag 1
timestep 0.1
run 2000 pre no post no
Step CPU Atoms c_myHeight c_myNtype[1] c_myNtype[2] c_myNtype[3] c_myMass[1] c_myMass[2] c_myMass[3] 
   58030            0     2118 0.00010177511            0         1780          338 1.2892758e-11 1.1199463e-11 1.6932954e-12 
   58058  0.011234045     2118 0.00010263435            0         1780          338 1.2892758e-11 1.1199463e-11 1.6932954e-12 
   59059   0.28678012     2118 0.00010436188            0         1780          338 1.2892758e-11 1.1199463e-11 1.6932954e-12 
   60030   0.51806998     2118 0.00010502656            0         1780          338 1.2892758e-11 1.1199463e-11 1.6932954e-12 
Loop time of 0.51809 on 4 procs for 2000 steps with 2118 atoms

99.9% CPU use with 4 MPI tasks x no OpenMP threads
timestep 1440
fix_modify k1 demflag 0
fix_modify d1 demflag 0
fix_modify vf1 demflag 0
Step CPU Atoms c_myHeight c_myNtype[1] c_myNtype[2] c_myNtype[3] c_myMass[1] c_myMass[2] c_myMass[3] 
   60030            0     2118 0.00010502656            0         1780          338 1.2892758e-11 1.1199463e-11 1.6932954e-12 
number of iterations: 5000 
maxz = 1.190782e-04 
S-sub-bulk = 6.830000e-03
S-sub-base = 4.333481e-03
S-nh4-bulk = 3.116078e-04
S-nh4-base = 2.174855e-04

   60031   0.43401814     2259 0.00010528115            0         1871          388 1.3434028e-11 1.1733343e-11 1.7006846e-12 
Loop time of 0.434033 on 4 procs for 1 steps with 2259 atoms

99.9% CPU use with 4 MPI tasks x no OpenMP threads
fix_modify k1 demflag 1
fix_modify d1 demflag 1
fix_modify vf1 demflag 1
timestep 0.1
run 2000 pre no post no
Step CPU Atoms c_myHeight c_myNtype[1] c_myNtype[2] c_myNtype[3] c_myMass[1] c_myMass[2] c_myMass[3] 
   60031            0     2259 0.00010528115            0         1871          388 1.3434028e-11 1.1733343e-11 1.7006846e-12 
   60060  0.012338877     2259 0.0001059814            0         1871          388 1.3434028e-11 1.1733343e-11 1.7006846e-12 
   61061   0.32048392     2259 0.00010763377            0         1871          388 1.3434028e-11 1.1733343e-11 1.7006846e-12 
   62031   0.57119393     2259 0.00010812905            0         1871          388 1.3434028e-11 1.1733343e-11 1.7006846e-12 
Loop time of 0.571214 on 4 procs for 2000 steps with 2259 atoms

99.9% CPU use with 4 MPI tasks x no OpenMP threads
timestep 1440
fix_modify k1 demflag 0
fix_modify d1 demflag 0
fix_modify vf1 demflag 0
Step CPU Atoms c_myHeight c_myNtype[1] c_myNtype[2] c_myNtype[3] c_myMass[1] c_myMass[2] c_myMass[3] 
   62031            0     2259 0.00010812905            0         1871          388 1.3434028e-11 1.1733343e-11 1.7006846e-12 
number of iterations: 5000 
maxz = 1.216427e-04 
S-sub-bulk = 6.481044e-03
S-sub-base = 3.950059e-03
S-nh4-bulk = 3.074777e-04
S-nh4-base = 2.179502e-04

   62032    0.4345789     2385 0.00010840189            0         1985          400 1.3980546e-11 1.2272405e-11 1.7081415e-12 
Loop time of 0.434595 on 4 procs for 1 steps with 2385 atoms

99.9% CPU use with 4 MPI tasks x no OpenMP threads
fix_modify k1 demflag 1
fix_modify d1 demflag 1
fix_modify vf1 demflag 1
timestep 0.1
run 2000 pre no post no
Step CPU Atoms c_myHeight c_myNtype[1] c_myNtype[2] c_myNtype[3] c_myMass[1] c_myMass[2] c_myMass[3] 
   62032            0     2385 0.00010840189            0         1985          400 1.3980546e-11 1.2272405e-11 1.7081415e-12 
   62062  0.014410973     2385 0.00010957814            0         1985          400 1.3980546e-11 1.2272405e-11 1.7081415e-12 
   63063   0.34505701     2385 0.00011123602            0         1985          400 1.3980546e-11 1.2272405e-11 1.7081415e-12 
   64032   0.60633612     2385 0.00011179361            0         1985          400 1.3980546e-11 1.2272405e-11 1.7081415e-12 
Loop time of 0.606357 on 4 procs for 2000 steps with 2385 atoms

99.8% CPU use with 4 MPI tasks x no OpenMP threads
timestep 1440
fix_modify k1 demflag 0
fix_modify d1 demflag 0
fix_modify vf1 demflag 0
Step CPU Atoms c_myHeight c_myNtype[1] c_myNtype[2] c_myNtype[3] c_myMass[1] c_myMass[2] c_myMass[3] 
   64032            0     2385 0.00011179361            0         1985          400 1.3980546e-11 1.2272405e-11 1.7081415e-12 
number of iterations: 5000 
maxz = 1.246073e-04 
S-sub-bulk = 6.313945e-03
S-sub-base = 3.456200e-03
S-nh4-bulk = 3.143655e-04
S-nh4-base = 2.086884e-04

   64033   0.46361685     2508 0.00011222756            0         2108          400 1.4514777e-11 1.2799552e-11 1.7152252e-12 
Loop time of 0.463635 on 4 procs for 1 steps with 2508 atoms

99.9% CPU use with 4 MPI tasks x no OpenMP threads
fix_modify k1 demflag 1
fix_modify d1 demflag 1
fix_modify vf1 demflag 1
timestep 0.1
run 2000 pre no post no
Step CPU Atoms c_myHeight c_myNtype[1] c_myNtype[2] c_myNtype[3] c_myMass[1] c_myMass[2] c_myMass[3] 
   64033            0     2508 0.00011222756            0         2108          400 1.4514777e-11 1.2799552e-11 1.7152252e-12 
   64064  0.015911102     2508 0.00011319943            0         2108          400 1.4514777e-11 1.2799552e-11 1.7152252e-12 
   65065   0.35340905     2508 0.00011502061            0         2108          400 1.4514777e-11 1.2799552e-11 1.7152252e-12 
   66033   0.62138605     2508 0.00011517243            0         2108          400 1.4514777e-11 1.2799552e-11 1.7152252e-12 
Loop time of 0.621407 on 4 procs for 2000 steps with 2508 atoms

99.8% CPU use with 4 MPI tasks x no OpenMP threads
timestep 1440
fix_modify k1 demflag 0
fix_modify d1 demflag 0
fix_modify vf1 demflag 0
Step CPU Atoms c_myHeight c_myNtype[1] c_myNtype[2] c_myNtype[3] c_myMass[1] c_myMass[2] c_myMass[3] 
   66033            0     2508 0.00011517243            0         2108          400 1.4514777e-11 1.2799552e-11 1.7152252e-12 
number of iterations: 5000 
maxz = 1.273361e-04 
S-sub-bulk = 6.128443e-03
S-sub-base = 3.137074e-03
S-nh4-bulk = 3.130299e-04
S-nh4-base = 2.110617e-04

   66034   0.46722293     2623 0.00011537953            0         2223          400 1.5051721e-11 1.3329199e-11 1.7225219e-12 
Loop time of 0.467237 on 4 procs for 1 steps with 2623 atoms

99.9% CPU use with 4 MPI tasks x no OpenMP threads
fix_modify k1 demflag 1
fix_modify d1 demflag 1
fix_modify vf1 demflag 1
timestep 0.1
run 2000 pre no post no
Step CPU Atoms c_myHeight c_myNtype[1] c_myNtype[2] c_myNtype[3] c_myMass[1] c_myMass[2] c_myMass[3] 
   66034            0     2623 0.00011537953            0         2223          400 1.5051721e-11 1.3329199e-11 1.7225219e-12 
   66066   0.01658392     2623 0.00011648831            0         2223          400 1.5051721e-11 1.3329199e-11 1.7225219e-12 
   67067   0.38652992     2623 0.00011871711            0         2223          400 1.5051721e-11 1.3329199e-11 1.7225219e-12 
   68034   0.68953395     2623 0.0001194416            0         2223          400 1.5051721e-11 1.3329199e-11 1.7225219e-12 
Loop time of 0.689555 on 4 procs for 2000 steps with 2623 atoms

99.9% CPU use with 4 MPI tasks x no OpenMP threads
timestep 1440
fix_modify k1 demflag 0
fix_modify d1 demflag 0
fix_modify vf1 demflag 0
Step CPU Atoms c_myHeight c_myNtype[1] c_myNtype[2] c_myNtype[3] c_myMass[1] c_myMass[2] c_myMass[3] 
   68034            0     2623 0.0001194416            0         2223          400 1.5051721e-11 1.3329199e-11 1.7225219e-12 
number of iterations: 4560 
maxz = 1.312239e-04 
S-sub-bulk = 5.851937e-03
S-sub-base = 2.947840e-03
S-nh4-bulk = 3.082814e-04
S-nh4-base = 2.121292e-04

   68035   0.42531085     2735 0.00011970807            0         2335          400 1.5598586e-11 1.386865e-11 1.7299363e-12 
Loop time of 0.425329 on 4 procs for 1 steps with 2735 atoms

99.7% CPU use with 4 MPI tasks x no OpenMP threads
fix_modify k1 demflag 1
fix_modify d1 demflag 1
fix_modify vf1 demflag 1
timestep 0.1
run 2000 pre no post no
Step CPU Atoms c_myHeight c_myNtype[1] c_myNtype[2] c_myNtype[3] c_myMass[1] c_myMass[2] c_myMass[3] 
   68035            0     2735 0.00011970807            0         2335          400 1.5598586e-11 1.386865e-11 1.7299363e-12 
   68068    0.0185709     2735 0.00012074906            0         2335          400 1.5598586e-11 1.386865e-11 1.7299363e-12 
   69069   0.40340805     2735 0.00012254623            0         2335          400 1.5598586e-11 1.386865e-11 1.7299363e-12 
   70035   0.71725988     2735 0.00012347607            0         2335          400 1.5598586e-11 1.386865e-11 1.7299363e-12 
Loop time of 0.717279 on 4 procs for 2000 steps with 2735 atoms

99.9% CPU use with 4 MPI tasks x no OpenMP threads
timestep 1440
fix_modify k1 demflag 0
fix_modify d1 demflag 0
fix_modify vf1 demflag 0
Step CPU Atoms c_myHeight c_myNtype[1] c_myNtype[2] c_myNtype[3] c_myMass[1] c_myMass[2] c_myMass[3] 
   70035            0     2735 0.00012347607            0         2335          400 1.5598586e-11 1.386865e-11 1.7299363e-12 
number of iterations: 5000 
maxz = 1.359776e-04 
S-sub-bulk = 5.794150e-03
S-sub-base = 2.601617e-03
S-nh4-bulk = 3.139022e-04
S-nh4-base = 2.037162e-04

   70036   0.49875998     2852 0.00012367534            0         2452          400 1.6127886e-11 1.4390879e-11 1.7370067e-12 
Loop time of 0.498777 on 4 procs for 1 steps with 2852 atoms

99.9% CPU use with 4 MPI tasks x no OpenMP threads
fix_modify k1 demflag 1
fix_modify d1 demflag 1
fix_modify vf1 demflag 1
timestep 0.1
run 2000 pre no post no
Step CPU Atoms c_myHeight c_myNtype[1] c_myNtype[2] c_myNtype[3] c_myMass[1] c_myMass[2] c_myMass[3] 
   70036            0     2852 0.00012367534            0         2452          400 1.6127886e-11 1.4390879e-11 1.7370067e-12 
   70070  0.019314051     2852 0.00012455332            0         2452          400 1.6127886e-11 1.4390879e-11 1.7370067e-12 
   71071   0.41025686     2852 0.00012635144            0         2452          400 1.6127886e-11 1.4390879e-11 1.7370067e-12 
   72036   0.73051691     2852 0.00012670281            0         2452          400 1.6127886e-11 1.4390879e-11 1.7370067e-12 
Loop time of 0.730536 on 4 procs for 2000 steps with 2852 atoms

99.9% CPU use with 4 MPI tasks x no OpenMP threads
timestep 1440
fix_modify k1 demflag 0
fix_modify d1 demflag 0
fix_modify vf1 demflag 0
Step CPU Atoms c_myHeight c_myNtype[1] c_myNtype[2] c_myNtype[3] c_myMass[1] c_myMass[2] c_myMass[3] 
   72036            0     2852 0.00012670281            0         2452          400 1.6127886e-11 1.4390879e-11 1.7370067e-12 
number of iterations: 5000 
maxz = 1.384361e-04 
S-sub-bulk = 5.679455e-03
S-sub-base = 2.384193e-03
S-nh4-bulk = 3.134163e-04
S-nh4-base = 2.046003e-04

   72037    0.5035429     2970 0.00012682747            0         2570          400 1.6660757e-11 1.4916531e-11 1.7442261e-12 
Loop time of 0.503558 on 4 procs for 1 steps with 2970 atoms

99.7% CPU use with 4 MPI tasks x no OpenMP threads
fix_modify k1 demflag 1
fix_modify d1 demflag 1
fix_modify vf1 demflag 1
timestep 0.1
run 2000 pre no post no
Step CPU Atoms c_myHeight c_myNtype[1] c_myNtype[2] c_myNtype[3] c_myMass[1] c_myMass[2] c_myMass[3] 
   72037            0     2970 0.00012682747            0         2570          400 1.6660757e-11 1.4916531e-11 1.7442261e-12 
   72072  0.020915031     2970 0.00012802219            0         2570          400 1.6660757e-11 1.4916531e-11 1.7442261e-12 
   73073   0.43470097     2970 0.00012996534            0         2570          400 1.6660757e-11 1.4916531e-11 1.7442261e-12 
   74037    0.7856009     2970 0.0001305302            0         2570          400 1.6660757e-11 1.4916531e-11 1.7442261e-12 
Loop time of 0.785621 on 4 procs for 2000 steps with 2970 atoms

99.9% CPU use with 4 MPI tasks x no OpenMP threads
timestep 1440
fix_modify k1 demflag 0
fix_modify d1 demflag 0
fix_modify vf1 demflag 0
Step CPU Atoms c_myHeight c_myNtype[1] c_myNtype[2] c_myNtype[3] c_myMass[1] c_myMass[2] c_myMass[3] 
   74037            0     2970 0.0001305302            0         2570          400 1.6660757e-11 1.4916531e-11 1.7442261e-12 
number of iterations: 3783 
maxz = 1.465060e-04 
S-sub-bulk = 5.442406e-03
S-sub-base = 2.279431e-03
S-nh4-bulk = 3.093309e-04
S-nh4-base = 2.055713e-04

   74038   0.38550901     3069 0.00013066739            0         2669          400 1.7204757e-11 1.5453195e-11 1.7515621e-12 
Loop time of 0.385523 on 4 procs for 1 steps with 3069 atoms

99.9% CPU use with 4 MPI tasks x no OpenMP threads
fix_modify k1 demflag 1
fix_modify d1 demflag 1
fix_modify vf1 demflag 1
timestep 0.1
run 2000 pre no post no
Step CPU Atoms c_myHeight c_myNtype[1] c_myNtype[2] c_myNtype[3] c_myMass[1] c_myMass[2] c_myMass[3] 
   74038            0     3069 0.00013066739            0         2669          400 1.7204757e-11 1.5453195e-11 1.7515621e-12 
   74074  0.022864103     3069 0.00013187123            0         2669          400 1.7204757e-11 1.5453195e-11 1.7515621e-12 
   75075   0.46268106     3069 0.00013312156            0         2669          400 1.7204757e-11 1.5453195e-11 1.7515621e-12 
   76038   0.81657815     3069 0.00013347949            0         2669          400 1.7204757e-11 1.5453195e-11 1.7515621e-12 
Loop time of 0.816599 on 4 procs for 2000 steps with 3069 atoms

99.9% CPU use with 4 MPI tasks x no OpenMP threads
timestep 1440
fix_modify k1 demflag 0
fix_modify d1 demflag 0
fix_modify vf1 demflag 0
Step CPU Atoms c_myHeight c_myNtype[1] c_myNtype[2] c_myNtype[3] c_myMass[1] c_myMass[2] c_myMass[3] 
   76038            0     3069 0.00013347949            0         2669          400 1.7204757e-11 1.5453195e-11 1.7515621e-12 
number of iterations: 5000 
maxz = 1.480664e-04 
S-sub-bulk = 5.484446e-03
S-sub-base = 2.010329e-03
S-nh4-bulk = 3.151391e-04
S-nh4-base = 1.981374e-04

   76039   0.53241897     3158 0.00013372902            0         2758          400 1.7724527e-11 1.5965962e-11 1.7585651e-12 
Loop time of 0.532436 on 4 procs for 1 steps with 3158 atoms

99.9% CPU use with 4 MPI tasks x no OpenMP threads
fix_modify k1 demflag 1
fix_modify d1 demflag 1
fix_modify vf1 demflag 1
timestep 0.1
run 2000 pre no post no
Step CPU Atoms c_myHeight c_myNtype[1] c_myNtype[2] c_myNtype[3] c_myMass[1] c_myMass[2] c_myMass[3] 
   76039            0     3158 0.00013372902            0         2758          400 1.7724527e-11 1.5965962e-11 1.7585651e-12 
   76076  0.024503946     3158 0.00013487484            0         2758          400 1.7724527e-11 1.5965962e-11 1.7585651e-12 
   77077   0.48350596     3158 0.00013678528            0         2758          400 1.7724527e-11 1.5965962e-11 1.7585651e-12 
   78039   0.86687112     3158 0.00013764995            0         2758          400 1.7724527e-11 1.5965962e-11 1.7585651e-12 
Loop time of 0.866891 on 4 procs for 2000 steps with 3158 atoms

99.9% CPU use with 4 MPI tasks x no OpenMP threads
timestep 1440
fix_modify k1 demflag 0
fix_modify d1 demflag 0
fix_modify vf1 demflag 0
Step CPU Atoms c_myHeight c_myNtype[1] c_myNtype[2] c_myNtype[3] c_myMass[1] c_myMass[2] c_myMass[3] 
   78039            0     3158 0.00013764995            0         2758          400 1.7724527e-11 1.5965962e-11 1.7585651e-12 
number of iterations: 4303 
maxz = 1.500267e-04 
S-sub-bulk = 5.393780e-03
S-sub-base = 1.871847e-03
S-nh4-bulk = 3.142027e-04
S-nh4-base = 1.986555e-04

   78040   0.46088099     3239 0.00013782639            0         2839          400 1.8252602e-11 1.6486864e-11 1.7657383e-12 
Loop time of 0.460898 on 4 procs for 1 steps with 3239 atoms

99.7% CPU use with 4 MPI tasks x no OpenMP threads
fix_modify k1 demflag 1
fix_modify d1 demflag 1
fix_modify vf1 demflag 1
timestep 0.1
run 2000 pre no post no
Step CPU Atoms c_myHeight c_myNtype[1] c_myNtype[2] c_myNtype[3] c_myMass[1] c_myMass[2] c_myMass[3] 
   78040            0     3239 0.00013782639            0         2839          400 1.8252602e-11 1.6486864e-11 1.7657383e-12 
   78078  0.025890112     3239 0.0001385992            0         2839          400 1.8252602e-11 1.6486864e-11 1.7657383e-12 
   79079   0.48541999     3239 0.00014012545            0         2839          400 1.8252602e-11 1.6486864e-11 1.7657383e-12 
   80040   0.87547112     3239 0.00014057477            0         2839          400 1.8252602e-11 1.6486864e-11 1.7657383e-12 
Loop time of 0.875491 on 4 procs for 2000 steps with 3239 atoms

99.9% CPU use with 4 MPI tasks x no OpenMP threads
timestep 1440
fix_modify k1 demflag 0
fix_modify d1 demflag 0
fix_modify vf1 demflag 0
Step CPU Atoms c_myHeight c_myNtype[1] c_myNtype[2] c_myNtype[3] c_myMass[1] c_myMass[2] c_myMass[3] 
   80040            0     3239 0.00014057477            0         2839          400 1.8252602e-11 1.6486864e-11 1.7657383e-12 
number of iterations: 3313 
maxz = 1.515359e-04 
S-sub-bulk = 5.174154e-03
S-sub-base = 1.804743e-03
S-nh4-bulk = 3.109714e-04
S-nh4-base = 1.992372e-04

   80041    0.3597672     3321 0.00014075298            0         2921          400 1.8791817e-11 1.7018831e-11 1.7729858e-12 
Loop time of 0.359781 on 4 procs for 1 steps with 3321 atoms

99.7% CPU use with 4 MPI tasks x no OpenMP threads
fix_modify k1 demflag 1
fix_modify d1 demflag 1
fix_modify vf1 demflag 1
timestep 0.1
run 2000 pre no post no
Step CPU Atoms c_myHeight c_myNtype[1] c_myNtype[2] c_myNtype[3] c_myMass[1] c_myMass[2] c_myMass[3] 
   80041            0     3321 0.00014075298            0         2921          400 1.8791817e-11 1.7018831e-11 1.7729858e-12 
   80080  0.027719975     3321 0.0001417204            0         2921          400 1.8791817e-11 1.7018831e-11 1.7729858e-12 
   81081     0.503685     3321 0.00014290364            0         2921          400 1.8791817e-11 1.7018831e-11 1.7729858e-12 
   82041   0.89850187     3321 0.00014354006            0         2921          400 1.8791817e-11 1.7018831e-11 1.7729858e-12 
Loop time of 0.898522 on 4 procs for 2000 steps with 3321 atoms

99.9% CPU use with 4 MPI tasks x no OpenMP threads
timestep 1440
fix_modify k1 demflag 0
fix_modify d1 demflag 0
fix_modify vf1 demflag 0
Step CPU Atoms c_myHeight c_myNtype[1] c_myNtype[2] c_myNtype[3] c_myMass[1] c_myMass[2] c_myMass[3] 
   82041            0     3321 0.00014354006            0         2921          400 1.8791817e-11 1.7018831e-11 1.7729858e-12 
number of iterations: 5000 
maxz = 1.526581e-04 
S-sub-bulk = 5.296612e-03
S-sub-base = 1.589706e-03
S-nh4-bulk = 3.168078e-04
S-nh4-base = 1.928393e-04

   82042   0.56367517     3392 0.00014360241            0         2992          400 1.9300463e-11 1.7520541e-11 1.7799221e-12 
Loop time of 0.563694 on 4 procs for 1 steps with 3392 atoms

99.9% CPU use with 4 MPI tasks x no OpenMP threads
fix_modify k1 demflag 1
fix_modify d1 demflag 1
fix_modify vf1 demflag 1
timestep 0.1
run 2000 pre no post no
Step CPU Atoms c_myHeight c_myNtype[1] c_myNtype[2] c_myNtype[3] c_myMass[1] c_myMass[2] c_myMass[3] 
   82042            0     3392 0.00014360241            0         2992          400 1.9300463e-11 1.7520541e-11 1.7799221e-12 
   82082  0.029700994     3392 0.00014469491            0         2992          400 1.9300463e-11 1.7520541e-11 1.7799221e-12 
   83083   0.52306604     3392 0.00014600855            0         2992          400 1.9300463e-11 1.7520541e-11 1.7799221e-12 
   84042   0.93373013     3392 0.00014671109            0         2992          400 1.9300463e-11 1.7520541e-11 1.7799221e-12 
Loop time of 0.93375 on 4 procs for 2000 steps with 3392 atoms

99.9% CPU use with 4 MPI tasks x no OpenMP threads
timestep 1440
fix_modify k1 demflag 0
fix_modify d1 demflag 0
fix_modify vf1 demflag 0
Step CPU Atoms c_myHeight c_myNtype[1] c_myNtype[2] c_myNtype[3] c_myMass[1] c_myMass[2] c_myMass[3] 
   84042            0     3392 0.00014671109            0         2992          400 1.9300463e-11 1.7520541e-11 1.7799221e-12 
number of iterations: 3558 
maxz = 1.548965e-04 
S-sub-bulk = 5.249602e-03
S-sub-base = 1.489474e-03
S-nh4-bulk = 3.171771e-04
S-nh4-base = 1.925040e-04

   84043    0.4061439     3467 0.00014695321            0         3067          400 1.9818896e-11 1.8031913e-11 1.7869826e-12 
Loop time of 0.406161 on 4 procs for 1 steps with 3467 atoms

99.9% CPU use with 4 MPI tasks x no OpenMP threads
fix_modify k1 demflag 1
fix_modify d1 demflag 1
fix_modify vf1 demflag 1
timestep 0.1
run 2000 pre no post no
Step CPU Atoms c_myHeight c_myNtype[1] c_myNtype[2] c_myNtype[3] c_myMass[1] c_myMass[2] c_myMass[3] 
   84043            0     3467 0.00014695321            0         3067          400 1.9818896e-11 1.8031913e-11 1.7869826e-12 
   84084  0.029994965     3467 0.00014792783            0         3067          400 1.9818896e-11 1.8031913e-11 1.7869826e-12 
   85085   0.52519393     3467 0.00014955211            0         3067          400 1.9818896e-11 1.8031913e-11 1.7869826e-12 
   86043   0.95345592     3467 0.00015022456            0         3067          400 1.9818896e-11 1.8031913e-11 1.7869826e-12 
Loop time of 0.953477 on 4 procs for 2000 steps with 3467 atoms

99.8% CPU use with 4 MPI tasks x no OpenMP threads
timestep 1440
fix_modify k1 demflag 0
fix_modify d1 demflag 0
fix_modify vf1 demflag 0
Step CPU Atoms c_myHeight c_myNtype[1] c_myNtype[2] c_myNtype[3] c_myMass[1] c_myMass[2] c_myMass[3] 
   86043            0     3467 0.00015022456            0         3067          400 1.9818896e-11 1.8031913e-11 1.7869826e-12 
number of iterations: 997 
maxz = 1.583939e-04 
S-sub-bulk = 4.986799e-03
S-sub-base = 1.474543e-03
S-nh4-bulk = 3.147496e-04
S-nh4-base = 1.927761e-04

   86044   0.12320995     3537 0.00015040975            0         3137          400 2.0355644e-11 1.856152e-11 1.7941233e-12 
Loop time of 0.123223 on 4 procs for 1 steps with 3537 atoms

99.9% CPU use with 4 MPI tasks x no OpenMP threads
fix_modify k1 demflag 1
fix_modify d1 demflag 1
fix_modify vf1 demflag 1
timestep 0.1
run 2000 pre no post no
Step CPU Atoms c_myHeight c_myNtype[1] c_myNtype[2] c_myNtype[3] c_myMass[1] c_myMass[2] c_myMass[3] 
   86044            0     3537 0.00015040975            0         3137          400 2.0355644e-11 1.856152e-11 1.7941233e-12 
   86086  0.032996893     3537 0.00015149474            0         3137          400 2.0355644e-11 1.856152e-11 1.7941233e-12 
   87087    0.5554769     3537 0.00015320317            0         3137          400 2.0355644e-11 1.856152e-11 1.7941233e-12 
   88044   0.99428892     3537 0.00015389246            0         3137          400 2.0355644e-11 1.856152e-11 1.7941233e-12 
Loop time of 0.994309 on 4 procs for 2000 steps with 3537 atoms

99.8% CPU use with 4 MPI tasks x no OpenMP threads
timestep 1440
fix_modify k1 demflag 0
fix_modify d1 demflag 0
fix_modify vf1 demflag 0
Step CPU Atoms c_myHeight c_myNtype[1] c_myNtype[2] c_myNtype[3] c_myMass[1] c_myMass[2] c_myMass[3] 
   88044            0     3537 0.00015389246            0         3137          400 2.0355644e-11 1.856152e-11 1.7941233e-12 
number of iterations: 5000 
maxz = 1.641976e-04 
S-sub-bulk = 4.830525e-03
S-sub-base = 1.360998e-03
S-nh4-bulk = 3.105722e-04
S-nh4-base = 1.932972e-04

   88045   0.57585502     3628 0.00015403733            0         3228          400 2.0885542e-11 1.9084209e-11 1.8013327e-12 
Loop time of 0.575869 on 4 procs for 1 steps with 3628 atoms

99.9% CPU use with 4 MPI tasks x no OpenMP threads
fix_modify k1 demflag 1
fix_modify d1 demflag 1
fix_modify vf1 demflag 1
timestep 0.1
run 2000 pre no post no
Step CPU Atoms c_myHeight c_myNtype[1] c_myNtype[2] c_myNtype[3] c_myMass[1] c_myMass[2] c_myMass[3] 
   88045            0     3628 0.00015403733            0         3228          400 2.0885542e-11 1.9084209e-11 1.8013327e-12 
   88088  0.034224987     3628 0.00015505197            0         3228          400 2.0885542e-11 1.9084209e-11 1.8013327e-12 
   89089   0.56842589     3628 0.0001567144            0         3228          400 2.0885542e-11 1.9084209e-11 1.8013327e-12 
   90045    1.0349209     3628 0.00015734597            0         3228          400 2.0885542e-11 1.9084209e-11 1.8013327e-12 
Loop time of 1.03494 on 4 procs for 2000 steps with 3628 atoms

99.9% CPU use with 4 MPI tasks x no OpenMP threads
timestep 1440
fix_modify k1 demflag 0
fix_modify d1 demflag 0
fix_modify vf1 demflag 0
Step CPU Atoms c_myHeight c_myNtype[1] c_myNtype[2] c_myNtype[3] c_myMass[1] c_myMass[2] c_myMass[3] 
   90045            0     3628 0.00015734597            0         3228          400 2.0885542e-11 1.9084209e-11 1.8013327e-12 
number of iterations: 5000 
maxz = 1.667832e-04 
S-sub-bulk = 5.032878e-03
S-sub-base = 1.194601e-03
S-nh4-bulk = 3.158568e-04
S-nh4-base = 1.871088e-04

   90046   0.59854603     3704 0.00015749775            0         3304          400 2.138177e-11 1.9573544e-11 1.8082257e-12 
Loop time of 0.598563 on 4 procs for 1 steps with 3704 atoms

99.9% CPU use with 4 MPI tasks x no OpenMP threads
fix_modify k1 demflag 1
fix_modify d1 demflag 1
fix_modify vf1 demflag 1
timestep 0.1
run 2000 pre no post no
Step CPU Atoms c_myHeight c_myNtype[1] c_myNtype[2] c_myNtype[3] c_myMass[1] c_myMass[2] c_myMass[3] 
   90046            0     3704 0.00015749775            0         3304          400 2.138177e-11 1.9573544e-11 1.8082257e-12 
   90090  0.035457134     3704 0.00015866352            0         3304          400 2.138177e-11 1.9573544e-11 1.8082257e-12 
   91091   0.58400297     3704 0.00016030805            0         3304          400 2.138177e-11 1.9573544e-11 1.8082257e-12 
   92046    1.0369091     3704 0.00016087373            0         3304          400 2.138177e-11 1.9573544e-11 1.8082257e-12 
Loop time of 1.03693 on 4 procs for 2000 steps with 3704 atoms

99.9% CPU use with 4 MPI tasks x no OpenMP threads
timestep 1440
fix_modify k1 demflag 0
fix_modify d1 demflag 0
fix_modify vf1 demflag 0
Step CPU Atoms c_myHeight c_myNtype[1] c_myNtype[2] c_myNtype[3] c_myMass[1] c_myMass[2] c_myMass[3] 
   92046            0     3704 0.00016087373            0         3304          400 2.138177e-11 1.9573544e-11 1.8082257e-12 
number of iterations: 2629 
maxz = 1.708759e-04 
S-sub-bulk = 4.969265e-03
S-sub-base = 1.135345e-03
S-nh4-bulk = 3.165319e-04
S-nh4-base = 1.859931e-04

   92047   0.32303286     3784 0.00016108742            0         3384          400 2.1894948e-11 2.007973e-11 1.8152174e-12 
Loop time of 0.323046 on 4 procs for 1 steps with 3784 atoms

99.9% CPU use with 4 MPI tasks x no OpenMP threads
fix_modify k1 demflag 1
fix_modify d1 demflag 1
fix_modify vf1 demflag 1
timestep 0.1
run 2000 pre no post no
Step CPU Atoms c_myHeight c_myNtype[1] c_myNtype[2] c_myNtype[3] c_myMass[1] c_myMass[2] c_myMass[3] 
   92047            0     3784 0.00016108742            0         3384          400 2.1894948e-11 2.007973e-11 1.8152174e-12 
   92092  0.038504124     3784 0.00016228719            0         3384          400 2.1894948e-11 2.007973e-11 1.8152174e-12 
   93093   0.57773018     3784 0.00016358829            0         3384          400 2.1894948e-11 2.007973e-11 1.8152174e-12 
   94047     1.038378     3784 0.00016402549            0         3384          400 2.1894948e-11 2.007973e-11 1.8152174e-12 
Loop time of 1.0384 on 4 procs for 2000 steps with 3784 atoms

99.9% CPU use with 4 MPI tasks x no OpenMP threads
timestep 1440
fix_modify k1 demflag 0
fix_modify d1 demflag 0
fix_modify vf1 demflag 0
Step CPU Atoms c_myHeight c_myNtype[1] c_myNtype[2] c_myNtype[3] c_myMass[1] c_myMass[2] c_myMass[3] 
   94047            0     3784 0.00016402549            0         3384          400 2.1894948e-11 2.007973e-11 1.8152174e-12 
number of iterations: 5000 
maxz = 1.739345e-04 
S-sub-bulk = 5.139517e-03
S-sub-base = 1.035101e-03
S-nh4-bulk = 3.223023e-04
S-nh4-base = 1.822314e-04

   94048   0.63169479     3862 0.0001640531            0         3462          400 2.238414e-11 2.0562135e-11 1.8220043e-12 
Loop time of 0.631709 on 4 procs for 1 steps with 3862 atoms

99.9% CPU use with 4 MPI tasks x no OpenMP threads
fix_modify k1 demflag 1
fix_modify d1 demflag 1
fix_modify vf1 demflag 1
timestep 0.1
run 2000 pre no post no
Step CPU Atoms c_myHeight c_myNtype[1] c_myNtype[2] c_myNtype[3] c_myMass[1] c_myMass[2] c_myMass[3] 
   94048            0     3862 0.0001640531            0         3462          400 2.238414e-11 2.0562135e-11 1.8220043e-12 
   94094  0.039546013     3862 0.0001652727            0         3462          400 2.238414e-11 2.0562135e-11 1.8220043e-12 
   95095   0.60853291     3862 0.00016654115            0         3462          400 2.238414e-11 2.0562135e-11 1.8220043e-12 
   96048     1.084754     3862 0.0001670838            0         3462          400 2.238414e-11 2.0562135e-11 1.8220043e-12 
Loop time of 1.08477 on 4 procs for 2000 steps with 3862 atoms

99.9% CPU use with 4 MPI tasks x no OpenMP threads
timestep 1440
fix_modify k1 demflag 0
fix_modify d1 demflag 0
fix_modify vf1 demflag 0
Step CPU Atoms c_myHeight c_myNtype[1] c_myNtype[2] c_myNtype[3] c_myMass[1] c_myMass[2] c_myMass[3] 
   96048            0     3862 0.0001670838            0         3462          400 2.238414e-11 2.0562135e-11 1.8220043e-12 
number of iterations: 2492 
maxz = 1.768460e-04 
S-sub-bulk = 5.063063e-03
S-sub-base = 9.921713e-04
S-nh4-bulk = 3.232834e-04
S-nh4-base = 1.816643e-04

   96049   0.32273316     3945 0.00016727881            0         3545          400 2.2889318e-11 2.1060426e-11 1.8288922e-12 
Loop time of 0.322748 on 4 procs for 1 steps with 3945 atoms

99.9% CPU use with 4 MPI tasks x no OpenMP threads
fix_modify k1 demflag 1
fix_modify d1 demflag 1
fix_modify vf1 demflag 1
timestep 0.1
run 2000 pre no post no
Step CPU Atoms c_myHeight c_myNtype[1] c_myNtype[2] c_myNtype[3] c_myMass[1] c_myMass[2] c_myMass[3] 
   96049            0     3945 0.00016727881            0         3545          400 2.2889318e-11 2.1060426e-11 1.8288922e-12 
   96096  0.040140152     3945 0.00016822425            0         3545          400 2.2889318e-11 2.1060426e-11 1.8288922e-12 
   97097   0.63917017     3945 0.00016977173            0         3545          400 2.2889318e-11 2.1060426e-11 1.8288922e-12 
   98049    1.1113651     3945 0.00017011565            0         3545          400 2.2889318e-11 2.1060426e-11 1.8288922e-12 
Loop time of 1.11139 on 4 procs for 2000 steps with 3945 atoms

99.9% CPU use with 4 MPI tasks x no OpenMP threads
timestep 1440
fix_modify k1 demflag 0
fix_modify d1 demflag 0
fix_modify vf1 demflag 0
Step CPU Atoms c_myHeight c_myNtype[1] c_myNtype[2] c_myNtype[3] c_myMass[1] c_myMass[2] c_myMass[3] 
   98049            0     3945 0.00017011565            0         3545          400 2.2889318e-11 2.1060426e-11 1.8288922e-12 
number of iterations: 837 
maxz = 1.805122e-04 
S-sub-bulk = 4.788714e-03
S-sub-base = 9.847521e-04
S-nh4-bulk = 3.211877e-04
S-nh4-base = 1.818893e-04

   98050   0.11486006     4025 0.00017031372            0         3625          400 2.3411953e-11 2.1576088e-11 1.8358648e-12 
Loop time of 0.114876 on 4 procs for 1 steps with 4025 atoms

99.9% CPU use with 4 MPI tasks x no OpenMP threads
fix_modify k1 demflag 1
fix_modify d1 demflag 1
fix_modify vf1 demflag 1
timestep 0.1
run 2000 pre no post no
Step CPU Atoms c_myHeight c_myNtype[1] c_myNtype[2] c_myNtype[3] c_myMass[1] c_myMass[2] c_myMass[3] 
   98050            0     4025 0.00017031372            0         3625          400 2.3411953e-11 2.1576088e-11 1.8358648e-12 
   98098  0.043516874     4025 0.00017184276            0         3625          400 2.3411953e-11 2.1576088e-11 1.8358648e-12 
[...]
  336336     0.171031    11353 0.00048677329            0        10937          416 5.9378036e-11 5.7015628e-11 2.3624073e-12 
  337337    1.2389901    11353 0.00048706039            0        10937          416 5.9378036e-11 5.7015628e-11 2.3624073e-12 
  338169    2.1194191    11353 0.00048732477            0        10937          416 5.9378036e-11 5.7015628e-11 2.3624073e-12 
Loop time of 2.11945 on 4 procs for 2000 steps with 11353 atoms

99.8% CPU use with 4 MPI tasks x no OpenMP threads
timestep 1440
fix_modify k1 demflag 0
fix_modify d1 demflag 0
fix_modify vf1 demflag 0
Step CPU Atoms c_myHeight c_myNtype[1] c_myNtype[2] c_myNtype[3] c_myMass[1] c_myMass[2] c_myMass[3] 
  338169            0    11353 0.00048732477            0        10937          416 5.9378036e-11 5.7015628e-11 2.3624073e-12 
number of iterations: 1445 
maxz = 4.951287e-04 
S-sub-bulk = 4.783358e-03
S-sub-base = 8.209660e-06
S-nh4-bulk = 5.176637e-04
S-nh4-base = 9.280592e-05

  338170   0.49217796    11353 0.00048732546            0        10937          416 5.9378036e-11 5.7015628e-11 2.3624073e-12 
Loop time of 0.492192 on 4 procs for 1 steps with 11353 atoms

99.9% CPU use with 4 MPI tasks x no OpenMP threads
fix_modify k1 demflag 1
fix_modify d1 demflag 1
fix_modify vf1 demflag 1
timestep 0.1
run 2000 pre no post no
Step CPU Atoms c_myHeight c_myNtype[1] c_myNtype[2] c_myNtype[3] c_myMass[1] c_myMass[2] c_myMass[3] 
  338170            0    11353 0.00048732546            0        10937          416 5.9378036e-11 5.7015628e-11 2.3624073e-12 
  338338   0.18070102    11353 0.00048732835            0        10937          416 5.9378036e-11 5.7015628e-11 2.3624073e-12 
  339339    1.2323849    11353 0.00048759578            0        10937          416 5.9378036e-11 5.7015628e-11 2.3624073e-12 
  340170     2.095758    11353 0.00048784686            0        10937          416 5.9378036e-11 5.7015628e-11 2.3624073e-12 
Loop time of 2.09579 on 4 procs for 2000 steps with 11353 atoms

99.7% CPU use with 4 MPI tasks x no OpenMP threads
timestep 1440
fix_modify k1 demflag 0
fix_modify d1 demflag 0
fix_modify vf1 demflag 0
Step CPU Atoms c_myHeight c_myNtype[1] c_myNtype[2] c_myNtype[3] c_myMass[1] c_myMass[2] c_myMass[3] 
  340170            0    11353 0.00048784686            0        10937          416 5.9378036e-11 5.7015628e-11 2.3624073e-12 
number of iterations: 626 
maxz = 4.960125e-04 
S-sub-bulk = 4.760362e-03
S-sub-base = 8.230276e-06
S-nh4-bulk = 5.177025e-04
S-nh4-base = 9.277623e-05

  340171   0.21872401    11353 0.00048786065            0        10937          416 5.9378036e-11 5.7015628e-11 2.3624073e-12 
Loop time of 0.218737 on 4 procs for 1 steps with 11353 atoms

99.9% CPU use with 4 MPI tasks x no OpenMP threads
fix_modify k1 demflag 1
fix_modify d1 demflag 1
fix_modify vf1 demflag 1
timestep 0.1
run 2000 pre no post no
Step CPU Atoms c_myHeight c_myNtype[1] c_myNtype[2] c_myNtype[3] c_myMass[1] c_myMass[2] c_myMass[3] 
  340171            0    11353 0.00048786065            0        10937          416 5.9378036e-11 5.7015628e-11 2.3624073e-12 
  340340   0.18133307    11353 0.00048787968            0        10937          416 5.9378036e-11 5.7015628e-11 2.3624073e-12 
  341341     1.223444    11353 0.0004882099            0        10937          416 5.9378036e-11 5.7015628e-11 2.3624073e-12 
  342171     2.081646    11353 0.00048837077            0        10937          416 5.9378036e-11 5.7015628e-11 2.3624073e-12 
Loop time of 2.08167 on 4 procs for 2000 steps with 11353 atoms

99.8% CPU use with 4 MPI tasks x no OpenMP threads
timestep 1440
fix_modify k1 demflag 0
fix_modify d1 demflag 0
fix_modify vf1 demflag 0
Step CPU Atoms c_myHeight c_myNtype[1] c_myNtype[2] c_myNtype[3] c_myMass[1] c_myMass[2] c_myMass[3] 
  342171            0    11353 0.00048837077            0        10937          416 5.9378036e-11 5.7015628e-11 2.3624073e-12 
number of iterations: 426 
maxz = 4.968031e-04 
S-sub-bulk = 4.726451e-03
S-sub-base = 8.245944e-06
S-nh4-bulk = 5.176337e-04
S-nh4-base = 9.275690e-05

  342172   0.14997292    11353 0.00048838404            0        10937          416 5.9378036e-11 5.7015628e-11 2.3624073e-12 
Loop time of 0.149987 on 4 procs for 1 steps with 11353 atoms

99.3% CPU use with 4 MPI tasks x no OpenMP threads
fix_modify k1 demflag 1
fix_modify d1 demflag 1
fix_modify vf1 demflag 1
timestep 0.1
run 2000 pre no post no
Step CPU Atoms c_myHeight c_myNtype[1] c_myNtype[2] c_myNtype[3] c_myMass[1] c_myMass[2] c_myMass[3] 
  342172            0    11353 0.00048838404            0        10937          416 5.9378036e-11 5.7015628e-11 2.3624073e-12 
  342342   0.17750192    11353 0.00048844849            0        10937          416 5.9378036e-11 5.7015628e-11 2.3624073e-12 
  343343     1.233238    11353 0.00048872964            0        10937          416 5.9378036e-11 5.7015628e-11 2.3624073e-12 
  344172    2.1055188    11353 0.00048894878            0        10937          416 5.9378036e-11 5.7015628e-11 2.3624073e-12 
Loop time of 2.10554 on 4 procs for 2000 steps with 11353 atoms

99.8% CPU use with 4 MPI tasks x no OpenMP threads
timestep 1440
fix_modify k1 demflag 0
fix_modify d1 demflag 0
fix_modify vf1 demflag 0
Step CPU Atoms c_myHeight c_myNtype[1] c_myNtype[2] c_myNtype[3] c_myMass[1] c_myMass[2] c_myMass[3] 
  344172            0    11353 0.00048894878            0        10937          416 5.9378036e-11 5.7015628e-11 2.3624073e-12 
number of iterations: 734 
maxz = 4.975167e-04 
S-sub-bulk = 4.699492e-03
S-sub-base = 8.273980e-06
S-nh4-bulk = 5.174981e-04
S-nh4-base = 9.272609e-05

  344173   0.25382686    11353 0.00048900023            0        10937          416 5.9378036e-11 5.7015628e-11 2.3624073e-12 
Loop time of 0.253842 on 4 procs for 1 steps with 11353 atoms

99.9% CPU use with 4 MPI tasks x no OpenMP threads
fix_modify k1 demflag 1
fix_modify d1 demflag 1
fix_modify vf1 demflag 1
timestep 0.1
run 2000 pre no post no
Step CPU Atoms c_myHeight c_myNtype[1] c_myNtype[2] c_myNtype[3] c_myMass[1] c_myMass[2] c_myMass[3] 
  344173            0    11353 0.00048900023            0        10937          416 5.9378036e-11 5.7015628e-11 2.3624073e-12 
  344344   0.17856693    11353 0.00048899549            0        10937          416 5.9378036e-11 5.7015628e-11 2.3624073e-12 
  345345    1.2127378    11353 0.00048920173            0        10937          416 5.9378036e-11 5.7015628e-11 2.3624073e-12 
  346173    2.0480359    11353 0.00048938484            0        10937          416 5.9378036e-11 5.7015628e-11 2.3624073e-12 
Loop time of 2.04806 on 4 procs for 2000 steps with 11353 atoms

99.8% CPU use with 4 MPI tasks x no OpenMP threads
timestep 1440
fix_modify k1 demflag 0
fix_modify d1 demflag 0
fix_modify vf1 demflag 0
Step CPU Atoms c_myHeight c_myNtype[1] c_myNtype[2] c_myNtype[3] c_myMass[1] c_myMass[2] c_myMass[3] 
  346173            0    11353 0.00048938484            0        10937          416 5.9378036e-11 5.7015628e-11 2.3624073e-12 
number of iterations: 1272 
maxz = 4.983187e-04 
S-sub-bulk = 4.696140e-03
S-sub-base = 8.323588e-06
S-nh4-bulk = 5.173758e-04
S-nh4-base = 9.269655e-05

  346174   0.43453288    11353 0.00048939057            0        10937          416 5.9378036e-11 5.7015628e-11 2.3624073e-12 
Loop time of 0.434548 on 4 procs for 1 steps with 11353 atoms

99.7% CPU use with 4 MPI tasks x no OpenMP threads
fix_modify k1 demflag 1
fix_modify d1 demflag 1
fix_modify vf1 demflag 1
timestep 0.1
run 2000 pre no post no
Step CPU Atoms c_myHeight c_myNtype[1] c_myNtype[2] c_myNtype[3] c_myMass[1] c_myMass[2] c_myMass[3] 
  346174            0    11353 0.00048939057            0        10937          416 5.9378036e-11 5.7015628e-11 2.3624073e-12 
  346346   0.17571688    11353 0.00048940964            0        10937          416 5.9378036e-11 5.7015628e-11 2.3624073e-12 
  347347     1.182426    11353 0.00048961953            0        10937          416 5.9378036e-11 5.7015628e-11 2.3624073e-12 
  348174      2.03142    11353 0.00048981303            0        10937          416 5.9378036e-11 5.7015628e-11 2.3624073e-12 
Loop time of 2.03145 on 4 procs for 2000 steps with 11353 atoms

99.7% CPU use with 4 MPI tasks x no OpenMP threads
timestep 1440
fix_modify k1 demflag 0
fix_modify d1 demflag 0
fix_modify vf1 demflag 0
Step CPU Atoms c_myHeight c_myNtype[1] c_myNtype[2] c_myNtype[3] c_myMass[1] c_myMass[2] c_myMass[3] 
  348174            0    11353 0.00048981303            0        10937          416 5.9378036e-11 5.7015628e-11 2.3624073e-12 
number of iterations: 408 
maxz = 4.988785e-04 
S-sub-bulk = 4.683751e-03
S-sub-base = 8.339917e-06
S-nh4-bulk = 5.170598e-04
S-nh4-base = 9.268267e-05

  348175   0.14409304    11353 0.00048987843            0        10937          416 5.9378036e-11 5.7015628e-11 2.3624073e-12 
Loop time of 0.144108 on 4 procs for 1 steps with 11353 atoms

99.9% CPU use with 4 MPI tasks x no OpenMP threads
fix_modify k1 demflag 1
fix_modify d1 demflag 1
fix_modify vf1 demflag 1
timestep 0.1
run 2000 pre no post no
Step CPU Atoms c_myHeight c_myNtype[1] c_myNtype[2] c_myNtype[3] c_myMass[1] c_myMass[2] c_myMass[3] 
  348175            0    11353 0.00048987843            0        10937          416 5.9378036e-11 5.7015628e-11 2.3624073e-12 
  348348   0.17196512    11353 0.00048984041            0        10937          416 5.9378036e-11 5.7015628e-11 2.3624073e-12 
  349349     1.175113    11353 0.00049008102            0        10937          416 5.9378036e-11 5.7015628e-11 2.3624073e-12 
  350175    1.9953451    11353 0.00049019174            0        10937          416 5.9378036e-11 5.7015628e-11 2.3624073e-12 
Loop time of 1.99538 on 4 procs for 2000 steps with 11353 atoms

99.8% CPU use with 4 MPI tasks x no OpenMP threads
timestep 1440
fix_modify k1 demflag 0
fix_modify d1 demflag 0
fix_modify vf1 demflag 0
Step CPU Atoms c_myHeight c_myNtype[1] c_myNtype[2] c_myNtype[3] c_myMass[1] c_myMass[2] c_myMass[3] 
  350175            0    11353 0.00049019174            0        10937          416 5.9378036e-11 5.7015628e-11 2.3624073e-12 
number of iterations: 319 
maxz = 4.994250e-04 
S-sub-bulk = 4.658626e-03
S-sub-base = 8.353785e-06
S-nh4-bulk = 5.167671e-04
S-nh4-base = 9.267828e-05

  350176   0.11420798    11353 0.0004902522            0        10937          416 5.9378036e-11 5.7015628e-11 2.3624073e-12 
Loop time of 0.114222 on 4 procs for 1 steps with 11353 atoms

99.9% CPU use with 4 MPI tasks x no OpenMP threads
fix_modify k1 demflag 1
fix_modify d1 demflag 1
fix_modify vf1 demflag 1
timestep 0.1
run 2000 pre no post no
Step CPU Atoms c_myHeight c_myNtype[1] c_myNtype[2] c_myNtype[3] c_myMass[1] c_myMass[2] c_myMass[3] 
  350176            0    11353 0.0004902522            0        10937          416 5.9378036e-11 5.7015628e-11 2.3624073e-12 
  350350   0.16523004    11353 0.00049021175            0        10937          416 5.9378036e-11 5.7015628e-11 2.3624073e-12 
  351351    1.1654651    11353 0.00049045612            0        10937          416 5.9378036e-11 5.7015628e-11 2.3624073e-12 
  352176    1.9834781    11353 0.00049063611            0        10937          416 5.9378036e-11 5.7015628e-11 2.3624073e-12 
Loop time of 1.98351 on 4 procs for 2000 steps with 11353 atoms

99.8% CPU use with 4 MPI tasks x no OpenMP threads
timestep 1440
fix_modify k1 demflag 0
fix_modify d1 demflag 0
fix_modify vf1 demflag 0
Step CPU Atoms c_myHeight c_myNtype[1] c_myNtype[2] c_myNtype[3] c_myMass[1] c_myMass[2] c_myMass[3] 
  352176            0    11353 0.00049063611            0        10937          416 5.9378036e-11 5.7015628e-11 2.3624073e-12 
number of iterations: 389 
maxz = 4.996599e-04 
S-sub-bulk = 4.632830e-03
S-sub-base = 8.374428e-06
S-nh4-bulk = 5.164018e-04
S-nh4-base = 9.269946e-05

  352177    0.1384151    11353 0.00049063013            0        10937          416 5.9378036e-11 5.7015628e-11 2.3624073e-12 
Loop time of 0.138429 on 4 procs for 1 steps with 11353 atoms

99.9% CPU use with 4 MPI tasks x no OpenMP threads
fix_modify k1 demflag 1
fix_modify d1 demflag 1
fix_modify vf1 demflag 1
timestep 0.1
run 2000 pre no post no
Step CPU Atoms c_myHeight c_myNtype[1] c_myNtype[2] c_myNtype[3] c_myMass[1] c_myMass[2] c_myMass[3] 
  352177            0    11353 0.00049063013            0        10937          416 5.9378036e-11 5.7015628e-11 2.3624073e-12 
  352352   0.17686582    11353 0.00049061845            0        10937          416 5.9378036e-11 5.7015628e-11 2.3624073e-12 
  353353     1.162272    11353 0.00049091637            0        10937          416 5.9378036e-11 5.7015628e-11 2.3624073e-12 
  354177    1.9869299    11353 0.00049099819            0        10937          416 5.9378036e-11 5.7015628e-11 2.3624073e-12 
Loop time of 1.98696 on 4 procs for 2000 steps with 11353 atoms

99.8% CPU use with 4 MPI tasks x no OpenMP threads
timestep 1440
fix_modify k1 demflag 0
fix_modify d1 demflag 0
fix_modify vf1 demflag 0
Step CPU Atoms c_myHeight c_myNtype[1] c_myNtype[2] c_myNtype[3] c_myMass[1] c_myMass[2] c_myMass[3] 
  354177            0    11353 0.00049099819            0        10937          416 5.9378036e-11 5.7015628e-11 2.3624073e-12 
number of iterations: 728 
maxz = 5.002220e-04 
S-sub-bulk = 4.621758e-03
S-sub-base = 8.411401e-06
S-nh4-bulk = 5.160107e-04
S-nh4-base = 9.272101e-05

number of iterations: 18036 
S-sub-bulk = 5.305944e-03
S-sub-base = 7.274432e-06
S-nh4-bulk = 5.193660e-04
S-nh4-base = 9.166170e-05

number of iterations: 17405 
S-sub-bulk = 5.081725e-03
S-sub-base = 7.775714e-06
S-nh4-bulk = 5.236015e-04
S-nh4-base = 9.070340e-05

number of iterations: 2659 
S-sub-bulk = 5.020114e-03
S-sub-base = 7.951615e-06
S-nh4-bulk = 5.267793e-04
S-nh4-base = 9.066829e-05

number of iterations: 935 
S-sub-bulk = 5.012007e-03
S-sub-base = 7.999428e-06
S-nh4-bulk = 5.291137e-04
S-nh4-base = 9.065886e-05

number of iterations: 129 
S-sub-bulk = 5.010843e-03
S-sub-base = 8.005494e-06
S-nh4-bulk = 5.308261e-04
S-nh4-base = 9.065769e-05

number of iterations: 162 
S-sub-bulk = 5.015958e-03
S-sub-base = 8.012935e-06
S-nh4-bulk = 5.320815e-04
S-nh4-base = 9.065626e-05

number of iterations: 146 
S-sub-bulk = 5.024801e-03
S-sub-base = 8.019472e-06
S-nh4-bulk = 5.330010e-04
S-nh4-base = 9.065504e-05

number of iterations: 120 
S-sub-bulk = 5.035137e-03
S-sub-base = 8.024727e-06
S-nh4-bulk = 5.336742e-04
S-nh4-base = 9.065406e-05

number of iterations: 97 
S-sub-bulk = 5.045539e-03
S-sub-base = 8.028896e-06
S-nh4-bulk = 5.341667e-04
S-nh4-base = 9.065331e-05

number of iterations: 103 
S-sub-bulk = 5.055820e-03
S-sub-base = 8.033247e-06
S-nh4-bulk = 5.345261e-04
S-nh4-base = 9.065253e-05

number of iterations: 116 
S-sub-bulk = 5.065947e-03
S-sub-base = 8.038052e-06
S-nh4-bulk = 5.347875e-04
S-nh4-base = 9.065170e-05

number of iterations: 121 
S-sub-bulk = 5.075672e-03
S-sub-base = 8.042957e-06
S-nh4-bulk = 5.349763e-04
S-nh4-base = 9.065087e-05

number of iterations: 126 
S-sub-bulk = 5.084814e-03
S-sub-base = 8.047947e-06
S-nh4-bulk = 5.351114e-04
S-nh4-base = 9.065005e-05

number of iterations: 131 
S-sub-bulk = 5.093238e-03
S-sub-base = 8.053008e-06
S-nh4-bulk = 5.352065e-04
S-nh4-base = 9.064927e-05

number of iterations: 125 
S-sub-bulk = 5.100750e-03
S-sub-base = 8.057714e-06
S-nh4-bulk = 5.352718e-04
S-nh4-base = 9.064857e-05

number of iterations: 116 
S-sub-bulk = 5.107253e-03
S-sub-base = 8.061972e-06
S-nh4-bulk = 5.353151e-04
S-nh4-base = 9.064797e-05

number of iterations: 102 
S-sub-bulk = 5.112716e-03
S-sub-base = 8.065629e-06
S-nh4-bulk = 5.353425e-04
S-nh4-base = 9.064749e-05

number of iterations: 92 
S-sub-bulk = 5.117214e-03
S-sub-base = 8.068855e-06
S-nh4-bulk = 5.353582e-04
S-nh4-base = 9.064709e-05

number of iterations: 83 
S-sub-bulk = 5.120855e-03
S-sub-base = 8.071708e-06
S-nh4-bulk = 5.353656e-04
S-nh4-base = 9.064676e-05

number of iterations: 72 
S-sub-bulk = 5.123754e-03
S-sub-base = 8.074136e-06
S-nh4-bulk = 5.353672e-04
S-nh4-base = 9.064650e-05

number of iterations: 60 
S-sub-bulk = 5.126029e-03
S-sub-base = 8.076127e-06
S-nh4-bulk = 5.353650e-04
S-nh4-base = 9.064630e-05

number of iterations: 48 
S-sub-bulk = 5.127792e-03
S-sub-base = 8.077698e-06
S-nh4-bulk = 5.353606e-04
S-nh4-base = 9.064615e-05

number of iterations: 48 
S-sub-bulk = 5.129159e-03
S-sub-base = 8.079249e-06
S-nh4-bulk = 5.353545e-04
S-nh4-base = 9.064601e-05

number of iterations: 46 
S-sub-bulk = 5.130215e-03
S-sub-base = 8.080717e-06
S-nh4-bulk = 5.353472e-04
S-nh4-base = 9.064588e-05

number of iterations: 44 
S-sub-bulk = 5.131026e-03
S-sub-base = 8.082105e-06
S-nh4-bulk = 5.353391e-04
S-nh4-base = 9.064577e-05

number of iterations: 43 
S-sub-bulk = 5.131648e-03
S-sub-base = 8.083445e-06
S-nh4-bulk = 5.353303e-04
S-nh4-base = 9.064567e-05

number of iterations: 41 
S-sub-bulk = 5.132123e-03
S-sub-base = 8.084707e-06
S-nh4-bulk = 5.353211e-04
S-nh4-base = 9.064559e-05

number of iterations: 40 
S-sub-bulk = 5.132485e-03
S-sub-base = 8.085924e-06
S-nh4-bulk = 5.353116e-04
S-nh4-base = 9.064551e-05

number of iterations: 39 
S-sub-bulk = 5.132761e-03
S-sub-base = 8.087098e-06
S-nh4-bulk = 5.353019e-04
S-nh4-base = 9.064544e-05

number of iterations: 39 
S-sub-bulk = 5.132970e-03
S-sub-base = 8.088258e-06
S-nh4-bulk = 5.352920e-04
S-nh4-base = 9.064538e-05

number of iterations: 38 
S-sub-bulk = 5.133130e-03
S-sub-base = 8.089375e-06
S-nh4-bulk = 5.352820e-04
S-nh4-base = 9.064533e-05

number of iterations: 38 
S-sub-bulk = 5.133252e-03
S-sub-base = 8.090479e-06
S-nh4-bulk = 5.352718e-04
S-nh4-base = 9.064528e-05

number of iterations: 37 
S-sub-bulk = 5.133345e-03
S-sub-base = 8.091541e-06
S-nh4-bulk = 5.352614e-04
S-nh4-base = 9.064525e-05

number of iterations: 37 
S-sub-bulk = 5.133417e-03
S-sub-base = 8.092591e-06
S-nh4-bulk = 5.352510e-04
S-nh4-base = 9.064522e-05

number of iterations: 37 
S-sub-bulk = 5.133475e-03
S-sub-base = 8.093628e-06
S-nh4-bulk = 5.352404e-04
S-nh4-base = 9.064520e-05

number of iterations: 36 
S-sub-bulk = 5.133521e-03
S-sub-base = 8.094625e-06
S-nh4-bulk = 5.352297e-04
S-nh4-base = 9.064518e-05

number of iterations: 36 
S-sub-bulk = 5.133559e-03
S-sub-base = 8.095610e-06
S-nh4-bulk = 5.352189e-04
S-nh4-base = 9.064517e-05

number of iterations: 36 
S-sub-bulk = 5.133591e-03
S-sub-base = 8.096583e-06
S-nh4-bulk = 5.352080e-04
S-nh4-base = 9.064517e-05

number of iterations: 36 
S-sub-bulk = 5.133620e-03
S-sub-base = 8.097544e-06
S-nh4-bulk = 5.351969e-04
S-nh4-base = 9.064518e-05

number of iterations: 36 
S-sub-bulk = 5.133647e-03
S-sub-base = 8.098492e-06
S-nh4-bulk = 5.351857e-04
S-nh4-base = 9.064519e-05

number of iterations: 36 
S-sub-bulk = 5.133671e-03
S-sub-base = 8.099428e-06
S-nh4-bulk = 5.351742e-04
S-nh4-base = 9.064521e-05

number of iterations: 36 
S-sub-bulk = 5.133694e-03
S-sub-base = 8.100352e-06
S-nh4-bulk = 5.351627e-04
S-nh4-base = 9.064523e-05

number of iterations: 36 
S-sub-bulk = 5.133717e-03
S-sub-base = 8.101263e-06
S-nh4-bulk = 5.351509e-04
S-nh4-base = 9.064527e-05

number of iterations: 35 
S-sub-bulk = 5.133739e-03
S-sub-base = 8.102137e-06
S-nh4-bulk = 5.351390e-04
S-nh4-base = 9.064531e-05

number of iterations: 36 
S-sub-bulk = 5.133761e-03
S-sub-base = 8.103023e-06
S-nh4-bulk = 5.351269e-04
S-nh4-base = 9.064536e-05

number of iterations: 35 
S-sub-bulk = 5.133782e-03
S-sub-base = 8.103872e-06
S-nh4-bulk = 5.351147e-04
S-nh4-base = 9.064541e-05

number of iterations: 36 
S-sub-bulk = 5.133804e-03
S-sub-base = 8.104733e-06
S-nh4-bulk = 5.351023e-04
S-nh4-base = 9.064547e-05

number of iterations: 35 
S-sub-bulk = 5.133826e-03
S-sub-base = 8.105558e-06
S-nh4-bulk = 5.350898e-04
S-nh4-base = 9.064554e-05

number of iterations: 35 
S-sub-bulk = 5.133847e-03
S-sub-base = 8.106371e-06
S-nh4-bulk = 5.350771e-04
S-nh4-base = 9.064562e-05

number of iterations: 35 
S-sub-bulk = 5.133869e-03
S-sub-base = 8.107171e-06
S-nh4-bulk = 5.350643e-04
S-nh4-base = 9.064570e-05

ERROR: Finish (../fix_bio_verify.cpp:310)
