 NUFEB Simulation

     1 atoms
     1 atom types
     4 nutrients

  0.0e-4   1.00e-04  xlo xhi
  0.0e-4   1.00e-04  ylo yhi
  0.0e-4   1.00e-04  zlo zhi

 Atoms

     1 1 1.76e-06  1.3e3 6.67e-05 4.20e-05 5.64e-06 1.76e-06


 Nutrients

     1 sub g 1.00e-01 1.00e-01 1.00e-01 1.00e-01 1.00e-01 1.00e-01 1.00e-01
     2 o2 l 9.00e-03 9.00e-03 9.00e-03 9.00e-03 9.00e-03 9.00e-03 9.00e-03
     3 suc l 1.00e-20 1.00e-20 1.00e-1 1.00e-20 1.00e-20 1.00e-20 1.00e-20 
     4 co2 l 4.00e-01 4.00e-01 4.00e-01 4.00e-01 4.00e-01 4.00e-01 4.00e-01

 Type Name

     1 cyano

 Diffusion Coeffs

     sub 0
     o2 2.3e-09
     suc 5.2e-10
     co2 1.9e-09

 Growth Rate

     cyano 0

 Ks

     cyano 0 0 0 0

 Yield

     cyano 0

 Maintenance

     cyano 0

 Decay

     cyano 0
