  Granular Flow Simulation 

       100 atoms 
       2 atom types 
       3 nutrients

   0.0   2.0e-04  xlo xhi 
   0.0   1.0e-05  ylo yhi 
   0.0   2.0e-04  zlo zhi 

 Atoms

     1 1 0.78e-6 290 0.5e-5 3e-6 1e-6 0.78e-6  
     2 1 0.78e-6 290 1.5e-5 3e-6 1e-6 0.78e-6  
     3 1 0.78e-6 290 2.5e-5 3e-6 1e-6 0.78e-6  
     4 1 0.78e-6 290 3.5e-5 3e-6 1e-6 0.78e-6  
     5 1 0.78e-6 290 4.5e-5 3e-6 1e-6 0.78e-6  
     6 1 0.78e-6 290 5.5e-5 3e-6 1e-6 0.78e-6  
     7 1 0.78e-6 290 6.5e-5 3e-6 1e-6 0.78e-6  
     8 1 0.78e-6 290 7.5e-5 3e-6 1e-6 0.78e-6  
     9 1 0.78e-6 290 8.5e-5 3e-6 1e-6 0.78e-6  
     10 2 0.78e-6 290 9.5e-5 3e-6 1e-6 0.78e-6  
     11 1 0.78e-6 290 10.5e-5 3e-6 1e-6 0.78e-6  
     12 1 0.78e-6 290 11.5e-5 3e-6 1e-6 0.78e-6  
     13 1 0.78e-6 290 12.5e-5 3e-6 1e-6 0.78e-6  
     14 1 0.78e-6 290 13.5e-5 3e-6 1e-6 0.78e-6  
     15 1 0.78e-6 290 14.5e-5 3e-6 1e-6 0.78e-6  
     16 1 0.78e-6 290 15.5e-5 3e-6 1e-6 0.78e-6  
     17 1 0.78e-6 290 16.5e-5 3e-6 1e-6 0.78e-6  
     18 1 0.78e-6 290 17.5e-5 3e-6 1e-6 0.78e-6  
     19 1 0.78e-6 290 18.5e-5 3e-6 1e-6 0.78e-6  
     20 1 0.78e-6 290 19.5e-5 3e-6 1e-6 0.78e-6  
     21 1 0.78e-6 290 0.5e-5 7e-6 1e-6 0.78e-6  
     22 1 0.78e-6 290 1.5e-5 7e-6 1e-6 0.78e-6  
     23 1 0.78e-6 290 2.5e-5 7e-6 1e-6 0.78e-6  
     24 1 0.78e-6 290 3.5e-5 7e-6 1e-6 0.78e-6  
     25 1 0.78e-6 290 4.5e-5 7e-6 1e-6 0.78e-6  
     26 1 0.78e-6 290 5.5e-5 7e-6 1e-6 0.78e-6  
     27 1 0.78e-6 290 6.5e-5 7e-6 1e-6 0.78e-6  
     28 1 0.78e-6 290 7.5e-5 7e-6 1e-6 0.78e-6  
     29 1 0.78e-6 290 8.5e-5 7e-6 1e-6 0.78e-6  
     30 2 0.78e-6 290 9.5e-5 7e-6 1e-6 0.78e-6  
     31 1 0.78e-6 290 10.5e-5 7e-6 1e-6 0.78e-6  
     32 1 0.78e-6 290 11.5e-5 7e-6 1e-6 0.78e-6  
     33 1 0.78e-6 290 12.5e-5 7e-6 1e-6 0.78e-6  
     34 1 0.78e-6 290 13.5e-5 7e-6 1e-6 0.78e-6  
     35 1 0.78e-6 290 14.5e-5 7e-6 1e-6 0.78e-6  
     36 1 0.78e-6 290 15.5e-5 7e-6 1e-6 0.78e-6  
     37 1 0.78e-6 290 16.5e-5 7e-6 1e-6 0.78e-6  
     38 1 0.78e-6 290 17.5e-5 7e-6 1e-6 0.78e-6  
     39 1 0.78e-6 290 18.5e-5 7e-6 1e-6 0.78e-6  
     40 1 0.78e-6 290 19.5e-5 7e-6 1e-6 0.78e-6  
     41 1 0.78e-6 290 0.5e-5 1e-6 1e-6 0.78e-6  
     42 1 0.78e-6 290 1.5e-5 1e-6 1e-6 0.78e-6  
     43 1 0.78e-6 290 2.5e-5 1e-6 1e-6 0.78e-6  
     44 1 0.78e-6 290 3.5e-5 1e-6 1e-6 0.78e-6  
     45 1 0.78e-6 290 4.5e-5 1e-6 1e-6 0.78e-6  
     46 1 0.78e-6 290 5.5e-5 1e-6 1e-6 0.78e-6  
     47 1 0.78e-6 290 6.5e-5 1e-6 1e-6 0.78e-6  
     48 1 0.78e-6 290 7.5e-5 1e-6 1e-6 0.78e-6  
     49 1 0.78e-6 290 8.5e-5 1e-6 1e-6 0.78e-6  
     50 2 0.78e-6 290 9.5e-5 1e-6 1e-6 0.78e-6  
     51 1 0.78e-6 290 10.5e-5 1e-6 1e-6 0.78e-6  
     52 1 0.78e-6 290 11.5e-5 1e-6 1e-6 0.78e-6  
     53 1 0.78e-6 290 12.5e-5 1e-6 1e-6 0.78e-6  
     54 1 0.78e-6 290 13.5e-5 1e-6 1e-6 0.78e-6  
     55 1 0.78e-6 290 14.5e-5 1e-6 1e-6 0.78e-6  
     56 1 0.78e-6 290 15.5e-5 1e-6 1e-6 0.78e-6  
     57 1 0.78e-6 290 16.5e-5 1e-6 1e-6 0.78e-6  
     58 1 0.78e-6 290 17.5e-5 1e-6 1e-6 0.78e-6  
     59 1 0.78e-6 290 18.5e-5 1e-6 1e-6 0.78e-6  
     60 1 0.78e-6 290 19.5e-5 1e-6 1e-6 0.78e-6  
     61 1 0.78e-6 290 0.5e-5 5e-6 1e-6 0.78e-6  
     62 1 0.78e-6 290 1.5e-5 5e-6 1e-6 0.78e-6  
     63 1 0.78e-6 290 2.5e-5 5e-6 1e-6 0.78e-6  
     64 1 0.78e-6 290 3.5e-5 5e-6 1e-6 0.78e-6  
     65 1 0.78e-6 290 4.5e-5 5e-6 1e-6 0.78e-6  
     66 1 0.78e-6 290 5.5e-5 5e-6 1e-6 0.78e-6  
     67 1 0.78e-6 290 6.5e-5 5e-6 1e-6 0.78e-6  
     68 1 0.78e-6 290 7.5e-5 5e-6 1e-6 0.78e-6  
     69 1 0.78e-6 290 8.5e-5 5e-6 1e-6 0.78e-6  
     70 2 0.78e-6 290 9.5e-5 5e-6 1e-6 0.78e-6  
     71 1 0.78e-6 290 10.5e-5 5e-6 1e-6 0.78e-6  
     72 1 0.78e-6 290 11.5e-5 5e-6 1e-6 0.78e-6  
     73 1 0.78e-6 290 12.5e-5 5e-6 1e-6 0.78e-6  
     74 1 0.78e-6 290 13.5e-5 5e-6 1e-6 0.78e-6  
     75 1 0.78e-6 290 14.5e-5 5e-6 1e-6 0.78e-6  
     76 1 0.78e-6 290 15.5e-5 5e-6 1e-6 0.78e-6  
     77 1 0.78e-6 290 16.5e-5 5e-6 1e-6 0.78e-6  
     78 1 0.78e-6 290 17.5e-5 5e-6 1e-6 0.78e-6  
     79 1 0.78e-6 290 18.5e-5 5e-6 1e-6 0.78e-6  
     80 1 0.78e-6 290 19.5e-5 5e-6 1e-6 0.78e-6  
     81 1 0.78e-6 290 0.5e-5 9e-6 1e-6 0.78e-6  
     82 1 0.78e-6 290 1.5e-5 9e-6 1e-6 0.78e-6  
     83 1 0.78e-6 290 2.5e-5 9e-6 1e-6 0.78e-6  
     84 1 0.78e-6 290 3.5e-5 9e-6 1e-6 0.78e-6  
     85 1 0.78e-6 290 4.5e-5 9e-6 1e-6 0.78e-6  
     86 1 0.78e-6 290 5.5e-5 9e-6 1e-6 0.78e-6  
     87 1 0.78e-6 290 6.5e-5 9e-6 1e-6 0.78e-6  
     88 1 0.78e-6 290 7.5e-5 9e-6 1e-6 0.78e-6  
     89 1 0.78e-6 290 8.5e-5 9e-6 1e-6 0.78e-6  
     90 2 0.78e-6 290 9.5e-5 9e-6 1e-6 0.78e-6  
     91 1 0.78e-6 290 10.5e-5 9e-6 1e-6 0.78e-6  
     92 1 0.78e-6 290 11.5e-5 9e-6 1e-6 0.78e-6  
     93 1 0.78e-6 290 12.5e-5 9e-6 1e-6 0.78e-6  
     94 1 0.78e-6 290 13.5e-5 9e-6 1e-6 0.78e-6  
     95 1 0.78e-6 290 14.5e-5 9e-6 1e-6 0.78e-6  
     96 1 0.78e-6 290 15.5e-5 9e-6 1e-6 0.78e-6  
     97 1 0.78e-6 290 16.5e-5 9e-6 1e-6 0.78e-6  
     98 1 0.78e-6 290 17.5e-5 9e-6 1e-6 0.78e-6  
     99 1 0.78e-6 290 18.5e-5 9e-6 1e-6 0.78e-6  
     100 1 0.78e-6 290 19.5e-5 9e-6 1e-6 0.78e-6  



 Nutrients

     1 o2 l 3.13e-5 3.13e-5 3.13e-5 3.13e-5 3.13e-5 3.13e-5 3.13e-5
     2 h2o l 1 1 1 1 1 1 1
     3 h l 0 0 0 0 0 0 0

 Type Name

     1 hetr
     2 hety

 Diffusion Coeffs
     
     o2 2e-9
     h2o 0
     h 0 

 Ks
     
     hety 9.38e-6 0 0
     hetr 1.88e-5 0 0

 Consumption Rate

     hety 0.000381111
     hetr 0.001524167

 Yield
    
     hety 0.0598373984
     hetr 0.0299186992

 Maintenance
 
     hety 0
     hetr 0

 Electron Donor
    
     hety o2
     hetr o2

 Decay

     hety 0
     hetr 0

 Catabolism Coeffs
         
     hety -1 0 0
     hetr -1 0 0

 Anabolism Coeffs
          
     hety 0 0 0
     hetr 0 0 0
 
 Decay Coeffs
           
     hety 0 0 0
     hetr 0 0 0
 
 Nutrient Energy

    o2 inf 16.4 inf inf inf 2
    h2o inf -237.18 -157.3 inf inf 2
    h inf 0 inf inf inf 2

 Type Energy

     hety inf -68 inf inf inf 2 
     hetr inf -67 inf inf inf 2

 Nutrient Charge
  
    o2 na 0 na na na
    h2o na 0 -1 na na
    h na 1 na na na

 Dissipation

     hety 0
     hetr 0


