ITEM: TIMESTEP
0
ITEM: NUMBER OF ATOMS
97
ITEM: BOX BOUNDS ff ff ff
0.0000000000000000e+00 1.0000000000000000e-04
0.0000000000000000e+00 1.0000000000000000e-04
0.0000000000000000e+00 1.0000000000000001e-05
ITEM: ATOMS id type diameter x y z 
22 1 1.51e-06 1.88e-06 1.38e-05 2.09e-06 
79 1 1.47e-06 2.46e-05 6.81e-06 3.84e-06 
59 1 1.78e-06 3.77e-06 1.8e-05 5.04e-06 
42 1 1.38e-06 2.46e-05 1.67e-05 7.55e-06 
78 1 1.67e-06 1.29e-05 4.7e-05 2.19e-06 
45 1 1.83e-06 1.06e-05 4.51e-05 4.36e-06 
66 1 1.59e-06 8.9e-06 2.42e-05 6.83e-06 
48 1 1.53e-06 4.94e-06 4.13e-05 8.27e-06 
90 1 1.49e-06 1.68e-06 5.93e-05 2.25e-06 
87 1 1.44e-06 6.31e-06 5.18e-05 3.26e-06 
43 1 1.43e-06 1.32e-05 5.93e-05 3.46e-06 
75 1 1.65e-06 1.08e-05 6.67e-05 3.34e-06 
9 1 1.76e-06 5.23e-06 5.49e-05 3.95e-06 
24 1 1.55e-06 2.81e-06 5.26e-05 4.77e-06 
55 1 1.86e-06 3.16e-06 6.55e-05 5.85e-06 
71 1 1.5e-06 2.34e-05 8.12e-05 5.84e-06 
68 1 1.71e-06 1.79e-05 9.21e-05 5.54e-06 
82 1 1.93e-06 1.34e-05 8.7e-05 7.04e-06 
49 1 1.38e-06 2.83e-05 9.52e-05 7.35e-06 
74 1 1.69e-06 4.13e-05 1.89e-05 2.72e-06 
85 1 1.93e-06 4.19e-05 2.14e-05 2.89e-06 
5 1 1.88e-06 4.66e-05 1.13e-05 3.01e-06 
57 1 1.51e-06 4.13e-05 1.94e-05 3.16e-06 
58 1 1.58e-06 4.99e-05 1.45e-05 3.52e-06 
44 1 1.79e-06 3.31e-05 1.65e-05 4.43e-06 
11 1 1.67e-06 5.14e-05 1.27e-05 4.64e-06 
15 1 1.79e-06 4.7e-05 5.61e-06 5.37e-06 
77 1 1.61e-06 5.92e-05 2.16e-05 5.38e-06 
32 1 1.4e-06 5.65e-05 4.69e-06 6.27e-06 
97 1 1.39e-06 3.49e-05 2.34e-05 7.41e-06 
10 1 1.51e-06 3.41e-05 4.04e-06 8.3e-06 
29 1 1.5e-06 4.19e-05 1.89e-05 8.36e-06 
73 1 1.5e-06 6.29e-05 1.99e-05 8.24e-06 
63 1 1.61e-06 5.52e-05 3.74e-05 1.63e-06 
96 1 1.87e-06 3.87e-05 3.04e-05 3.07e-06 
40 1 1.85e-06 5.96e-05 2.68e-05 5.47e-06 
84 1 1.72e-06 5.3e-05 4.63e-05 5.07e-06 
72 1 1.85e-06 5.23e-05 3.96e-05 6.11e-06 
37 1 1.89e-06 6.43e-05 4.9e-05 6.15e-06 
39 1 1.86e-06 3.56e-05 4.44e-05 7.12e-06 
16 1 1.4e-06 6.43e-05 4.8e-05 7.39e-06 
69 1 1.38e-06 5.75e-05 2.91e-05 8.51e-06 
54 1 1.39e-06 3.58e-05 5.42e-05 1.55e-06 
17 1 1.73e-06 5.77e-05 6.67e-05 2.42e-06 
51 1 1.9e-06 4.77e-05 6.88e-05 2.81e-06 
80 1 1.92e-06 4.99e-05 6.9e-05 2.73e-06 
47 1 1.91e-06 3.79e-05 6.2e-05 4.97e-06 
28 1 1.88e-06 5.44e-05 6.77e-05 5.96e-06 
3 1 1.55e-06 4.34e-05 6.2e-05 6.29e-06 
52 1 1.54e-06 5.05e-05 5.39e-05 7.38e-06 
13 1 1.45e-06 6.3e-05 6.36e-05 8.47e-06 
25 1 1.72e-06 3.64e-05 7.93e-05 1.91e-06 
88 1 1.41e-06 5.45e-05 8.61e-05 4e-06 
89 1 1.86e-06 5.12e-05 8.86e-05 3.72e-06 
65 1 1.65e-06 5.62e-05 7.68e-05 7.13e-06 
36 1 1.81e-06 5.63e-05 9.71e-05 7.02e-06 
6 1 1.74e-06 7.29e-05 1.78e-05 2.37e-06 
56 1 1.81e-06 7.5e-05 1.3e-05 2.8e-06 
31 1 1.92e-06 6.99e-05 1.34e-05 4.07e-06 
67 1 1.4e-06 7.11e-05 1.75e-05 4.63e-06 
19 1 1.54e-06 7.65e-05 1.28e-05 5.34e-06 
94 1 1.68e-06 8.31e-05 1.05e-05 6.33e-06 
86 1 1.38e-06 9.73e-05 1.87e-05 6.32e-06 
8 1 1.55e-06 9.12e-05 4.66e-05 1.66e-06 
60 1 1.68e-06 8.31e-05 4.12e-05 3.36e-06 
35 1 1.68e-06 8.26e-05 4.02e-05 3.9e-06 
53 1 1.37e-06 6.63e-05 3.01e-05 4.2e-06 
64 1 1.68e-06 9.55e-05 2.73e-05 4.95e-06 
62 1 1.43e-06 8.61e-05 3.06e-05 4.55e-06 
83 1 1.88e-06 7.14e-05 2.78e-05 6.25e-06 
41 1 1.68e-06 8.59e-05 4.19e-05 6.28e-06 
70 1 1.47e-06 7.25e-05 3.32e-05 6.58e-06 
76 1 1.77e-06 6.89e-05 4.68e-05 6.74e-06 
61 1 1.44e-06 6.7e-05 4.75e-05 7.72e-06 
20 1 1.7e-06 9.65e-05 4.17e-05 8.14e-06 
95 1 1.45e-06 7.04e-05 4.82e-05 8.33e-06 
34 1 1.81e-06 7.37e-05 5.9e-05 3.99e-06 
33 1 1.53e-06 6.75e-05 7e-05 3.58e-06 
92 1 1.37e-06 8.35e-05 7.09e-05 4.94e-06 
4 1 1.61e-06 7.42e-05 7.24e-05 5.15e-06 
38 1 1.61e-06 7.45e-05 5.49e-05 6.26e-06 
14 1 1.73e-06 6.77e-05 5.91e-05 6.22e-06 
7 1 1.41e-06 8.86e-05 6.04e-05 6.3e-06 
27 1 1.68e-06 9.06e-05 6.53e-05 6.92e-06 
30 1 1.68e-06 9.49e-05 6.19e-05 7.39e-06 
91 1 1.9e-06 8.73e-05 6.31e-05 7.27e-06 
21 1 1.67e-06 8.88e-05 6.48e-05 7.48e-06 
23 1 1.38e-06 8.59e-05 8.41e-05 1.57e-06 
93 1 1.74e-06 8.01e-05 8.46e-05 2.05e-06 
50 1 1.5e-06 7.59e-05 8.2e-05 4.17e-06 
18 1 1.74e-06 7.82e-05 9.82e-05 4.12e-06 
26 1 1.6e-06 7.11e-05 9.58e-05 5.66e-06 
1 1 1.44e-06 9.32e-05 7.84e-05 6.01e-06 
81 1 1.84e-06 8.07e-05 8.04e-05 6.25e-06 
2 1 1.75e-06 7.56e-05 8.84e-05 6.45e-06 
12 1 1.75e-06 7.76e-05 7.83e-05 6.6e-06 
46 1 1.55e-06 8.33e-05 7.69e-05 7.68e-06 
ITEM: TIMESTEP
360
ITEM: NUMBER OF ATOMS
97
ITEM: BOX BOUNDS ff ff ff
0.0000000000000000e+00 1.0000000000000000e-04
0.0000000000000000e+00 1.0000000000000000e-04
0.0000000000000000e+00 1.0000000000000001e-05
ITEM: ATOMS id type diameter x y z 
22 1 1.5301e-06 1.88e-06 1.38e-05 2.09e-06 
79 1 1.48957e-06 2.46e-05 6.81e-06 3.84e-06 
59 1 1.8037e-06 3.77e-06 1.8e-05 5.04e-06 
42 1 1.39837e-06 2.46e-05 1.67e-05 7.55e-06 
78 1 1.69223e-06 1.29e-05 4.7e-05 2.19e-06 
45 1 1.85436e-06 1.06e-05 4.51e-05 4.36e-06 
66 1 1.61117e-06 8.9e-06 2.42e-05 6.83e-06 
48 1 1.55037e-06 4.94e-06 4.13e-05 8.27e-06 
90 1 1.50984e-06 1.68e-06 5.93e-05 2.25e-06 
87 1 1.45917e-06 6.31e-06 5.18e-05 3.26e-06 
43 1 1.44904e-06 1.32e-05 5.93e-05 3.46e-06 
75 1 1.67197e-06 1.08e-05 6.67e-05 3.34e-06 
9 1 1.78343e-06 5.23e-06 5.49e-05 3.95e-06 
24 1 1.57064e-06 2.81e-06 5.26e-05 4.77e-06 
55 1 1.88476e-06 3.16e-06 6.55e-05 5.85e-06 
71 1 1.51997e-06 2.34e-05 8.12e-05 5.84e-06 
68 1 1.73277e-06 1.79e-05 9.21e-05 5.54e-06 
82 1 1.95569e-06 1.34e-05 8.7e-05 7.04e-06 
49 1 1.39837e-06 2.83e-05 9.52e-05 7.35e-06 
74 1 1.7125e-06 4.13e-05 1.86155e-05 2.31232e-06 
85 1 1.95569e-06 4.19e-05 2.14e-05 2.89e-06 
5 1 1.90503e-06 4.66e-05 1.13e-05 3.01e-06 
57 1 1.5301e-06 4.13e-05 1.98119e-05 3.42277e-06 
58 1 1.60104e-06 4.99e-05 1.45e-05 3.52e-06 
44 1 1.81383e-06 3.31e-05 1.65e-05 4.43e-06 
11 1 1.69223e-06 5.14e-05 1.27e-05 4.64e-06 
15 1 1.81383e-06 4.7e-05 5.61e-06 5.37e-06 
77 1 1.63143e-06 5.92e-05 2.16e-05 5.38e-06 
32 1 1.41864e-06 5.65e-05 4.69e-06 6.27e-06 
97 1 1.40851e-06 3.49e-05 2.34e-05 7.41e-06 
10 1 1.5301e-06 3.41e-05 4.04e-06 8.3e-06 
29 1 1.51997e-06 4.19e-05 1.89e-05 8.36e-06 
73 1 1.51997e-06 6.29e-05 1.99e-05 8.24e-06 
63 1 1.63143e-06 5.52e-05 3.74e-05 1.63e-06 
96 1 1.8949e-06 3.87e-05 3.04e-05 3.07e-06 
40 1 1.87463e-06 5.96e-05 2.68e-05 5.47e-06 
84 1 1.7429e-06 5.3e-05 4.63e-05 5.07e-06 
72 1 1.87463e-06 5.23e-05 3.96e-05 6.11e-06 
37 1 1.91516e-06 6.43e-05 4.89016e-05 6.01624e-06 
39 1 1.88476e-06 3.56e-05 4.44e-05 7.12e-06 
16 1 1.41864e-06 6.43e-05 4.79308e-05 7.38886e-06 
69 1 1.39837e-06 5.75e-05 2.91e-05 8.51e-06 
54 1 1.40851e-06 3.58e-05 5.42e-05 1.55e-06 
17 1 1.75303e-06 5.77e-05 6.67e-05 2.42e-06 
51 1 1.9253e-06 4.77e-05 6.88e-05 2.81e-06 
80 1 1.94556e-06 4.99e-05 6.9e-05 2.73e-06 
47 1 1.93543e-06 3.79e-05 6.2e-05 4.97e-06 
28 1 1.90503e-06 5.44e-05 6.77e-05 5.96e-06 
3 1 1.57064e-06 4.34e-05 6.2e-05 6.29e-06 
52 1 1.5605e-06 5.05e-05 5.39e-05 7.38e-06 
13 1 1.4693e-06 6.3e-05 6.36e-05 8.47e-06 
25 1 1.7429e-06 3.64e-05 7.93e-05 1.91e-06 
88 1 1.42877e-06 5.45e-05 8.61e-05 4e-06 
89 1 1.88476e-06 5.12e-05 8.86e-05 3.72e-06 
65 1 1.67197e-06 5.62e-05 7.68e-05 7.13e-06 
36 1 1.8341e-06 5.63e-05 9.71e-05 7.02e-06 
6 1 1.76317e-06 7.29e-05 1.78e-05 2.37e-06 
56 1 1.8341e-06 7.5e-05 1.3e-05 2.8e-06 
31 1 1.94556e-06 6.99e-05 1.34e-05 4.07e-06 
67 1 1.41864e-06 7.11e-05 1.75e-05 4.63e-06 
19 1 1.5605e-06 7.65e-05 1.28e-05 5.34e-06 
94 1 1.70237e-06 8.31e-05 1.05e-05 6.33e-06 
86 1 1.39837e-06 9.73e-05 1.87e-05 6.32e-06 
8 1 1.57064e-06 9.12e-05 4.66e-05 1.66e-06 
60 1 1.70237e-06 8.31623e-05 4.13246e-05 3.12859e-06 
35 1 1.70237e-06 8.24825e-05 3.99651e-05 3.87559e-06 
53 1 1.38824e-06 6.63e-05 3.01e-05 4.2e-06 
64 1 1.70237e-06 9.55e-05 2.73e-05 4.95e-06 
62 1 1.44904e-06 8.61e-05 3.06e-05 4.55e-06 
83 1 1.90503e-06 7.14e-05 2.78e-05 6.25e-06 
41 1 1.70237e-06 8.59e-05 4.19e-05 6.28e-06 
70 1 1.48957e-06 7.25e-05 3.32e-05 6.58e-06 
76 1 1.79356e-06 6.89e-05 4.68e-05 6.74e-06 
61 1 1.45917e-06 6.7e-05 4.75e-05 7.72e-06 
20 1 1.72263e-06 9.65e-05 4.17e-05 8.14e-06 
95 1 1.4693e-06 7.04e-05 4.82e-05 8.33e-06 
34 1 1.8341e-06 7.37e-05 5.9e-05 3.99e-06 
33 1 1.55037e-06 6.75e-05 7e-05 3.58e-06 
92 1 1.38824e-06 8.35e-05 7.09e-05 4.94e-06 
4 1 1.63143e-06 7.42e-05 7.24e-05 5.15e-06 
38 1 1.63143e-06 7.45e-05 5.49e-05 6.26e-06 
14 1 1.75303e-06 6.77e-05 5.91e-05 6.22e-06 
7 1 1.42877e-06 8.86e-05 6.04e-05 6.3e-06 
27 1 1.70237e-06 9.06e-05 6.53e-05 6.92e-06 
30 1 1.70237e-06 9.49e-05 6.19e-05 7.39e-06 
91 1 1.9253e-06 8.73e-05 6.31e-05 7.27e-06 
21 1 1.69223e-06 8.88e-05 6.48e-05 7.48e-06 
23 1 1.39837e-06 8.59e-05 8.41e-05 1.57e-06 
93 1 1.76317e-06 8.01e-05 8.46e-05 2.05e-06 
50 1 1.51997e-06 7.59e-05 8.2e-05 4.17e-06 
18 1 1.76317e-06 7.82e-05 9.82e-05 4.12e-06 
26 1 1.6213e-06 7.11e-05 9.58e-05 5.66e-06 
1 1 1.45917e-06 9.32e-05 7.84e-05 6.01e-06 
81 1 1.8645e-06 8.07e-05 8.04e-05 6.25e-06 
2 1 1.7733e-06 7.56e-05 8.84e-05 6.45e-06 
12 1 1.7733e-06 7.76e-05 7.83e-05 6.6e-06 
46 1 1.57064e-06 8.33e-05 7.69e-05 7.68e-06 
ITEM: TIMESTEP
720
ITEM: NUMBER OF ATOMS
102
ITEM: BOX BOUNDS ff ff ff
0.0000000000000000e+00 1.0000000000000000e-04
0.0000000000000000e+00 1.0000000000000000e-04
0.0000000000000000e+00 1.0000000000000001e-05
ITEM: ATOMS id type diameter x y z 
22 1 1.55732e-06 1.88e-06 1.38e-05 2.09e-06 
79 1 1.51607e-06 2.46e-05 6.81e-06 3.84e-06 
59 1 1.83579e-06 3.77e-06 1.8e-05 5.04e-06 
42 1 1.42325e-06 2.46e-05 1.67e-05 7.55e-06 
78 1 1.72234e-06 1.29e-05 4.7e-05 2.19e-06 
45 1 1.88735e-06 1.06e-05 4.51e-05 4.36e-06 
66 1 1.63983e-06 8.9e-06 2.42e-05 6.83e-06 
48 1 1.57795e-06 4.94e-06 4.13e-05 8.27e-06 
90 1 1.5367e-06 1.68e-06 5.93e-05 2.25e-06 
87 1 1.48513e-06 6.31e-06 5.18e-05 3.26e-06 
43 1 1.47482e-06 1.32e-05 5.93e-05 3.46e-06 
75 1 1.70171e-06 1.08e-05 6.67e-05 3.34e-06 
9 1 1.81516e-06 5.23e-06 5.49e-05 3.95e-06 
24 1 1.59858e-06 2.81e-06 5.26e-05 4.77e-06 
55 1 1.91829e-06 3.16e-06 6.55e-05 5.85e-06 
71 1 1.54701e-06 2.34e-05 8.12e-05 5.84e-06 
68 1 1.76359e-06 1.79e-05 9.21e-05 5.54e-06 
82 1 1.58097e-06 1.29566e-05 8.66527e-05 5.26831e-06 
49 1 1.42325e-06 2.83e-05 9.52e-05 7.35e-06 
98 1 1.57873e-06 1.38428e-05 8.73468e-05 8.1528e-06 
74 1 1.74297e-06 4.13e-05 1.87067e-05 2.20431e-06 
85 1 1.58097e-06 4.14566e-05 2.10527e-05 1.84982e-06 
5 1 1.93892e-06 4.66e-05 1.13e-05 3.01e-06 
57 1 1.55732e-06 4.13e-05 1.98742e-05 3.35922e-06 
58 1 1.62952e-06 4.99e-05 1.45e-05 3.52e-06 
44 1 1.8461e-06 3.31e-05 1.65e-05 4.43e-06 
11 1 1.72234e-06 5.14e-05 1.27e-05 4.64e-06 
15 1 1.8461e-06 4.7e-05 5.61e-06 5.37e-06 
77 1 1.66046e-06 5.92e-05 2.16e-05 5.38e-06 
32 1 1.44388e-06 5.65e-05 4.69e-06 6.27e-06 
97 1 1.43356e-06 3.49e-05 2.34e-05 7.41e-06 
10 1 1.55732e-06 3.41e-05 4.04e-06 8.3e-06 
29 1 1.54701e-06 4.19e-05 1.89e-05 8.36e-06 
73 1 1.54701e-06 6.29e-05 1.99e-05 8.24e-06 
99 1 1.57873e-06 4.23428e-05 2.17468e-05 4.65919e-06 
63 1 1.66046e-06 5.52e-05 3.74e-05 1.63e-06 
96 1 1.92861e-06 3.87e-05 3.04e-05 3.07e-06 
40 1 1.90798e-06 5.96e-05 2.68e-05 5.47e-06 
84 1 1.77391e-06 5.3e-05 4.63e-05 5.07e-06 
72 1 1.90798e-06 5.23e-05 3.96e-05 6.11e-06 
37 1 1.94923e-06 6.43e-05 4.87748e-05 5.924e-06 
39 1 1.91829e-06 3.56e-05 4.44e-05 7.12e-06 
16 1 1.44388e-06 6.43e-05 4.78859e-05 7.36007e-06 
69 1 1.42325e-06 5.75e-05 2.91e-05 8.51e-06 
54 1 1.43356e-06 3.58e-05 5.42e-05 1.55e-06 
17 1 1.78422e-06 5.77e-05 6.67e-05 2.42e-06 
51 1 1.95955e-06 4.77e-05 6.88e-05 2.81e-06 
80 1 1.57278e-06 4.94569e-05 6.8653e-05 1.84836e-06 
47 1 1.51778e-06 3.73313e-05 6.16689e-05 3.29399e-06 
28 1 1.93892e-06 5.44e-05 6.77e-05 5.96e-06 
3 1 1.59858e-06 4.34e-05 6.2e-05 6.29e-06 
52 1 1.58826e-06 5.05e-05 5.39e-05 7.38e-06 
13 1 1.49544e-06 6.3e-05 6.36e-05 8.47e-06 
100 1 1.57055e-06 5.03424e-05 6.93466e-05 4.4978e-06 
102 1 1.60665e-06 3.8502e-05 6.23505e-05 6.74415e-06 
25 1 1.77391e-06 3.64e-05 7.93e-05 1.91e-06 
88 1 1.45419e-06 5.45e-05 8.61e-05 4e-06 
89 1 1.91829e-06 5.12e-05 8.86e-05 3.72e-06 
65 1 1.70171e-06 5.62e-05 7.68e-05 7.13e-06 
36 1 1.86673e-06 5.63e-05 9.71e-05 7.02e-06 
6 1 1.79453e-06 7.29e-05 1.78e-05 2.37e-06 
56 1 1.86673e-06 7.5e-05 1.3e-05 2.8e-06 
31 1 1.57278e-06 6.94569e-05 1.3053e-05 2.2997e-06 
67 1 1.44388e-06 7.11e-05 1.75e-05 4.63e-06 
19 1 1.58826e-06 7.65e-05 1.28e-05 5.34e-06 
94 1 1.73265e-06 8.31e-05 1.05e-05 6.33e-06 
86 1 1.42325e-06 9.73e-05 1.87e-05 6.32e-06 
101 1 1.57055e-06 7.03424e-05 1.37466e-05 5.8378e-06 
8 1 1.59858e-06 9.12e-05 4.66e-05 1.66e-06 
60 1 1.73265e-06 8.3141e-05 4.12821e-05 2.96922e-06 
35 1 1.73265e-06 8.24424e-05 3.98849e-05 3.75214e-06 
53 1 1.41294e-06 6.63e-05 3.01e-05 4.2e-06 
64 1 1.73265e-06 9.55e-05 2.73e-05 4.95e-06 
62 1 1.47482e-06 8.61e-05 3.06e-05 4.55e-06 
83 1 1.93892e-06 7.14e-05 2.78e-05 6.25e-06 
41 1 1.73265e-06 8.59e-05 4.19e-05 6.28e-06 
70 1 1.51607e-06 7.25e-05 3.32e-05 6.58e-06 
76 1 1.82547e-06 6.89e-05 4.68e-05 6.74e-06 
61 1 1.48513e-06 6.7e-05 4.75e-05 7.72e-06 
20 1 1.75328e-06 9.65e-05 4.17e-05 8.14e-06 
95 1 1.49544e-06 7.04e-05 4.82e-05 8.33e-06 
34 1 1.86673e-06 7.37e-05 5.9e-05 3.99e-06 
33 1 1.57795e-06 6.75e-05 7e-05 3.58e-06 
92 1 1.41294e-06 8.35e-05 7.09e-05 4.94e-06 
4 1 1.66046e-06 7.42e-05 7.24e-05 5.15e-06 
38 1 1.66046e-06 7.45e-05 5.49e-05 6.26e-06 
14 1 1.78422e-06 6.77e-05 5.91e-05 6.22e-06 
7 1 1.45419e-06 8.86e-05 6.04e-05 6.3e-06 
27 1 1.73265e-06 9.06e-05 6.53e-05 6.92e-06 
30 1 1.73265e-06 9.49e-05 6.19e-05 7.39e-06 
91 1 1.95955e-06 8.73e-05 6.31e-05 7.27e-06 
21 1 1.72234e-06 8.88e-05 6.48e-05 7.48e-06 
23 1 1.42325e-06 8.59e-05 8.41e-05 1.57e-06 
93 1 1.79453e-06 8.01e-05 8.46e-05 2.05e-06 
50 1 1.54701e-06 7.59e-05 8.2e-05 4.17e-06 
18 1 1.79453e-06 7.82e-05 9.82e-05 4.12e-06 
26 1 1.65015e-06 7.11e-05 9.58e-05 5.66e-06 
1 1 1.48513e-06 9.32e-05 7.84e-05 6.01e-06 
81 1 1.89767e-06 8.07e-05 8.04e-05 6.25e-06 
2 1 1.80485e-06 7.56e-05 8.84e-05 6.45e-06 
12 1 1.80485e-06 7.76e-05 7.83e-05 6.6e-06 
46 1 1.59858e-06 8.33e-05 7.69e-05 7.68e-06 
ITEM: TIMESTEP
1080
ITEM: NUMBER OF ATOMS
105
ITEM: BOX BOUNDS ff ff ff
0.0000000000000000e+00 1.0000000000000000e-04
0.0000000000000000e+00 1.0000000000000000e-04
0.0000000000000000e+00 1.0000000000000001e-05
ITEM: ATOMS id type diameter x y z 
22 1 1.57806e-06 1.88e-06 1.38e-05 2.09e-06 
79 1 1.53625e-06 2.46e-05 6.81e-06 3.84e-06 
59 1 1.86023e-06 3.77e-06 1.8e-05 5.04e-06 
42 1 1.4422e-06 2.46e-05 1.67e-05 7.55e-06 
78 1 1.74527e-06 1.29e-05 4.7e-05 2.19e-06 
45 1 1.91248e-06 1.06e-05 4.51e-05 4.36e-06 
66 1 1.66166e-06 8.9e-06 2.42e-05 6.83e-06 
48 1 1.59896e-06 4.94e-06 4.13e-05 8.27e-06 
90 1 1.55716e-06 1.68e-06 5.93e-05 2.25e-06 
87 1 1.5049e-06 6.31e-06 5.18e-05 3.26e-06 
43 1 1.49445e-06 1.32e-05 5.93e-05 3.46e-06 
75 1 1.72437e-06 1.08e-05 6.67e-05 3.34e-06 
9 1 1.83933e-06 5.23e-06 5.49e-05 3.95e-06 
24 1 1.61986e-06 2.81e-06 5.26e-05 4.77e-06 
55 1 1.94383e-06 3.16e-06 6.55e-05 5.85e-06 
82 1 1.60201e-06 1.29566e-05 8.66527e-05 5.26831e-06 
71 1 1.56761e-06 2.34e-05 8.12e-05 5.84e-06 
68 1 1.78707e-06 1.79e-05 9.21e-05 5.54e-06 
49 1 1.4422e-06 2.83e-05 9.52e-05 7.35e-06 
98 1 1.59975e-06 1.38428e-05 8.73468e-05 8.1528e-06 
85 1 1.60201e-06 4.14566e-05 2.10527e-05 1.84982e-06 
74 1 1.76617e-06 4.13e-05 1.87898e-05 2.08706e-06 
5 1 1.96473e-06 4.66e-05 1.13e-05 3.01e-06 
57 1 1.57806e-06 4.13e-05 1.99528e-05 3.31323e-06 
58 1 1.65121e-06 4.99e-05 1.45e-05 3.52e-06 
44 1 1.87068e-06 3.31e-05 1.65e-05 4.43e-06 
11 1 1.74527e-06 5.14e-05 1.27e-05 4.64e-06 
99 1 1.59975e-06 4.23428e-05 2.17468e-05 4.65919e-06 
15 1 1.87068e-06 4.7e-05 5.61e-06 5.37e-06 
77 1 1.68256e-06 5.92e-05 2.16e-05 5.38e-06 
32 1 1.4631e-06 5.65e-05 4.69e-06 6.27e-06 
97 1 1.45265e-06 3.49e-05 2.34e-05 7.41e-06 
10 1 1.57806e-06 3.41e-05 4.04e-06 8.3e-06 
29 1 1.56761e-06 4.19e-05 1.89e-05 8.36e-06 
73 1 1.56761e-06 6.29e-05 1.99e-05 8.24e-06 
63 1 1.68256e-06 5.52e-05 3.74e-05 1.63e-06 
96 1 1.95428e-06 3.87e-05 3.04e-05 3.07e-06 
37 1 1.56881e-06 6.38561e-05 4.83136e-05 4.07595e-06 
40 1 1.93338e-06 5.96e-05 2.68e-05 5.47e-06 
84 1 1.79752e-06 5.3e-05 4.63e-05 5.07e-06 
72 1 1.93338e-06 5.23e-05 3.96e-05 6.11e-06 
39 1 1.94383e-06 3.56e-05 4.44e-05 7.12e-06 
16 1 1.4631e-06 6.42601e-05 4.77456e-05 7.29326e-06 
105 1 1.5666e-06 6.47868e-05 4.91383e-05 7.63497e-06 
69 1 1.4422e-06 5.75e-05 2.91e-05 8.51e-06 
54 1 1.45265e-06 3.58e-05 5.42e-05 1.55e-06 
103 1 1.59907e-06 4.76032e-05 6.82638e-05 1.87926e-06 
80 1 1.59371e-06 4.94569e-05 6.8653e-05 1.84836e-06 
17 1 1.80797e-06 5.77e-05 6.67e-05 2.42e-06 
47 1 1.53798e-06 3.73313e-05 6.16689e-05 3.29399e-06 
100 1 1.59146e-06 5.03424e-05 6.93466e-05 4.4978e-06 
51 1 1.55223e-06 4.77939e-05 6.93205e-05 4.56541e-06 
28 1 1.96473e-06 5.44e-05 6.77e-05 5.96e-06 
3 1 1.61986e-06 4.34e-05 6.2e-05 6.29e-06 
102 1 1.62804e-06 3.8502e-05 6.23505e-05 6.74415e-06 
52 1 1.60941e-06 5.05e-05 5.39e-05 7.38e-06 
13 1 1.51535e-06 6.3e-05 6.36e-05 8.47e-06 
25 1 1.79752e-06 3.64e-05 7.93e-05 1.91e-06 
88 1 1.47355e-06 5.45e-05 8.61e-05 4e-06 
89 1 1.94383e-06 5.12e-05 8.86e-05 3.72e-06 
65 1 1.72437e-06 5.62e-05 7.68e-05 7.13e-06 
36 1 1.89158e-06 5.63e-05 9.71e-05 7.02e-06 
31 1 1.59371e-06 6.94569e-05 1.3053e-05 2.2997e-06 
6 1 1.81842e-06 7.29e-05 1.78e-05 2.37e-06 
56 1 1.89158e-06 7.5e-05 1.3e-05 2.8e-06 
67 1 1.4631e-06 7.11e-05 1.75e-05 4.63e-06 
19 1 1.60941e-06 7.65e-05 1.28e-05 5.34e-06 
101 1 1.59146e-06 7.03424e-05 1.37466e-05 5.8378e-06 
94 1 1.75572e-06 8.31e-05 1.05e-05 6.33e-06 
86 1 1.4422e-06 9.73e-05 1.87e-05 6.32e-06 
8 1 1.61986e-06 9.12e-05 4.66e-05 1.66e-06 
60 1 1.75572e-06 8.31095e-05 4.1219e-05 2.81168e-06 
35 1 1.75572e-06 8.24079e-05 3.98159e-05 3.61515e-06 
53 1 1.43175e-06 6.63e-05 3.01e-05 4.2e-06 
64 1 1.75572e-06 9.55e-05 2.73e-05 4.95e-06 
62 1 1.49445e-06 8.61e-05 3.06e-05 4.55e-06 
83 1 1.96473e-06 7.14e-05 2.78e-05 6.25e-06 
41 1 1.75572e-06 8.59e-05 4.19e-05 6.28e-06 
70 1 1.53625e-06 7.25e-05 3.32e-05 6.58e-06 
76 1 1.84978e-06 6.89e-05 4.68e-05 6.74e-06 
61 1 1.5049e-06 6.7e-05 4.75e-05 7.72e-06 
20 1 1.77662e-06 9.65e-05 4.17e-05 8.14e-06 
95 1 1.51535e-06 7.04e-05 4.82e-05 8.33e-06 
34 1 1.89158e-06 7.37e-05 5.9e-05 3.99e-06 
33 1 1.59896e-06 6.75e-05 7e-05 3.58e-06 
92 1 1.43175e-06 8.35e-05 7.09e-05 4.94e-06 
91 1 1.57711e-06 8.68557e-05 6.2752e-05 5.49482e-06 
4 1 1.68256e-06 7.42e-05 7.24e-05 5.15e-06 
38 1 1.68256e-06 7.45e-05 5.49e-05 6.26e-06 
14 1 1.80797e-06 6.77e-05 5.91e-05 6.22e-06 
7 1 1.47355e-06 8.86e-05 6.04e-05 6.3e-06 
27 1 1.75572e-06 9.06e-05 6.53e-05 6.92e-06 
30 1 1.75572e-06 9.49e-05 6.19e-05 7.39e-06 
21 1 1.74527e-06 8.88e-05 6.48e-05 7.48e-06 
104 1 1.57488e-06 8.77437e-05 6.34475e-05 8.14916e-06 
23 1 1.4422e-06 8.59e-05 8.41e-05 1.57e-06 
93 1 1.81842e-06 8.01e-05 8.46e-05 2.05e-06 
50 1 1.56761e-06 7.59e-05 8.2e-05 4.17e-06 
18 1 1.81842e-06 7.82e-05 9.82e-05 4.12e-06 
26 1 1.67211e-06 7.11e-05 9.58e-05 5.66e-06 
1 1 1.5049e-06 9.32e-05 7.84e-05 6.01e-06 
81 1 1.92293e-06 8.07e-05 8.04e-05 6.25e-06 
2 1 1.82887e-06 7.56e-05 8.84e-05 6.45e-06 
12 1 1.82887e-06 7.76e-05 7.83e-05 6.6e-06 
46 1 1.61986e-06 8.33e-05 7.69e-05 7.68e-06 
ITEM: TIMESTEP
1440
ITEM: NUMBER OF ATOMS
112
ITEM: BOX BOUNDS ff ff ff
0.0000000000000000e+00 1.0000000000000000e-04
0.0000000000000000e+00 1.0000000000000000e-04
0.0000000000000000e+00 1.0000000000000001e-05
ITEM: ATOMS id type diameter x y z 
22 1 1.60613e-06 1.88e-06 1.38e-05 2.09e-06 
79 1 1.56359e-06 2.46e-05 6.81e-06 3.84e-06 
59 1 1.89332e-06 3.77e-06 1.8e-05 5.04e-06 
42 1 1.46786e-06 2.46e-05 1.67e-05 7.55e-06 
78 1 1.77632e-06 1.29e-05 4.7e-05 2.19e-06 
45 1 1.9465e-06 1.06e-05 4.51e-05 4.36e-06 
66 1 1.69122e-06 8.9e-06 2.42e-05 6.83e-06 
48 1 1.62741e-06 4.94e-06 4.13e-05 8.27e-06 
90 1 1.58486e-06 1.68e-06 5.93e-05 2.25e-06 
87 1 1.53168e-06 6.31e-06 5.18e-05 3.26e-06 
43 1 1.52104e-06 1.32e-05 5.93e-05 3.46e-06 
75 1 1.75504e-06 1.08e-05 6.67e-05 3.34e-06 
9 1 1.87205e-06 5.23e-06 5.49e-05 3.95e-06 
24 1 1.64868e-06 2.81e-06 5.26e-05 4.77e-06 
55 1 1.57138e-06 2.71734e-06 6.51533e-05 4.08128e-06 
110 1 1.56916e-06 3.60204e-06 6.58462e-05 7.61623e-06 
82 1 1.63052e-06 1.29566e-05 8.66527e-05 5.26831e-06 
71 1 1.5955e-06 2.34e-05 8.12e-05 5.84e-06 
68 1 1.81886e-06 1.79e-05 9.21e-05 5.54e-06 
49 1 1.46786e-06 2.83e-05 9.52e-05 7.35e-06 
98 1 1.62821e-06 1.38428e-05 8.73468e-05 8.1528e-06 
85 1 1.63052e-06 4.14566e-05 2.10527e-05 1.84982e-06 
74 1 1.79759e-06 4.13e-05 1.88928e-05 1.98457e-06 
5 1 1.54076e-06 4.60303e-05 1.09683e-05 1.79484e-06 
57 1 1.60613e-06 4.13e-05 2.00204e-05 3.25422e-06 
58 1 1.68059e-06 4.99e-05 1.45e-05 3.52e-06 
44 1 1.90396e-06 3.31e-05 1.65e-05 4.43e-06 
11 1 1.77632e-06 5.14e-05 1.27e-05 4.64e-06 
99 1 1.62821e-06 4.23428e-05 2.17468e-05 4.65919e-06 
15 1 1.90396e-06 4.7e-05 5.61e-06 5.37e-06 
77 1 1.7125e-06 5.92e-05 2.16e-05 5.38e-06 
32 1 1.48913e-06 5.65e-05 4.69e-06 6.27e-06 
97 1 1.47849e-06 3.49e-05 2.34e-05 7.41e-06 
10 1 1.60613e-06 3.41e-05 4.04e-06 8.3e-06 
29 1 1.5955e-06 4.19e-05 1.89e-05 8.36e-06 
73 1 1.5955e-06 6.29e-05 1.99e-05 8.24e-06 
106 1 1.63098e-06 4.72031e-05 1.16511e-05 4.78735e-06 
63 1 1.7125e-06 5.52e-05 3.74e-05 1.63e-06 
96 1 1.53256e-06 3.81308e-05 3.00686e-05 1.79318e-06 
37 1 1.59672e-06 6.38561e-05 4.82485e-05 3.98555e-06 
40 1 1.96778e-06 5.96e-05 2.68e-05 5.47e-06 
84 1 1.8295e-06 5.3e-05 4.63e-05 5.07e-06 
72 1 1.96778e-06 5.23e-05 3.96e-05 6.11e-06 
39 1 1.54659e-06 3.56936e-05 4.49186e-05 8.18241e-06 
16 1 1.48913e-06 6.42674e-05 4.77649e-05 7.1843e-06 
105 1 1.59447e-06 6.47987e-05 4.91696e-05 7.50703e-06 
69 1 1.46786e-06 5.75e-05 2.91e-05 8.51e-06 
109 1 1.62231e-06 3.93025e-05 3.07508e-05 4.8457e-06 
111 1 1.59325e-06 3.55036e-05 4.38658e-05 5.31821e-06 
54 1 1.47849e-06 3.58e-05 5.42e-05 1.55e-06 
103 1 1.62752e-06 4.76032e-05 6.82638e-05 1.87926e-06 
80 1 1.62207e-06 4.94569e-05 6.8653e-05 1.84836e-06 
17 1 1.84014e-06 5.77e-05 6.67e-05 2.42e-06 
47 1 1.56535e-06 3.73313e-05 6.16689e-05 3.29399e-06 
100 1 1.61978e-06 5.03424e-05 6.93466e-05 4.4978e-06 
51 1 1.57985e-06 4.77939e-05 6.93205e-05 4.56541e-06 
28 1 1.58972e-06 5.28052e-05 6.84735e-05 5.39241e-06 
3 1 1.64868e-06 4.34e-05 6.2e-05 6.29e-06 
102 1 1.65701e-06 3.8502e-05 6.23505e-05 6.74415e-06 
52 1 1.63804e-06 5.05e-05 5.39e-05 7.38e-06 
13 1 1.54231e-06 6.3e-05 6.36e-05 8.47e-06 
107 1 1.58458e-06 5.59897e-05 6.6929e-05 6.52575e-06 
25 1 1.8295e-06 3.64e-05 7.93e-05 1.91e-06 
88 1 1.49977e-06 5.45e-05 8.61e-05 4e-06 
89 1 1.57138e-06 5.07573e-05 8.82533e-05 1.95128e-06 
65 1 1.75504e-06 5.62e-05 7.68e-05 7.13e-06 
36 1 1.92523e-06 5.63e-05 9.71e-05 7.02e-06 
112 1 1.56916e-06 5.1642e-05 8.89462e-05 5.48623e-06 
31 1 1.62207e-06 6.94569e-05 1.3053e-05 2.2997e-06 
6 1 1.85077e-06 7.29e-05 1.78e-05 2.37e-06 
56 1 1.92523e-06 7.5e-05 1.3e-05 2.8e-06 
67 1 1.48913e-06 7.11e-05 1.75e-05 4.63e-06 
19 1 1.63804e-06 7.65e-05 1.28e-05 5.34e-06 
101 1 1.61978e-06 7.03424e-05 1.37466e-05 5.8378e-06 
94 1 1.78695e-06 8.31e-05 1.05e-05 6.33e-06 
86 1 1.46786e-06 9.73e-05 1.87e-05 6.32e-06 
8 1 1.64868e-06 9.12e-05 4.66e-05 1.66e-06 
60 1 1.78695e-06 8.3077e-05 4.11541e-05 2.6455e-06 
35 1 1.78695e-06 8.23726e-05 3.97451e-05 3.46989e-06 
53 1 1.45722e-06 6.63e-05 3.01e-05 4.2e-06 
64 1 1.78695e-06 9.55e-05 2.73e-05 4.95e-06 
62 1 1.52104e-06 8.61e-05 3.06e-05 4.55e-06 
83 1 1.58827e-06 7.09565e-05 2.74526e-05 4.47795e-06 
41 1 1.78695e-06 8.59e-05 4.19e-05 6.28e-06 
70 1 1.56359e-06 7.25e-05 3.32e-05 6.58e-06 
76 1 1.88268e-06 6.89e-05 4.68e-05 6.74e-06 
61 1 1.53168e-06 6.7e-05 4.75e-05 7.72e-06 
20 1 1.80823e-06 9.65e-05 4.17e-05 8.14e-06 
95 1 1.54231e-06 7.04e-05 4.82e-05 8.33e-06 
108 1 1.58603e-06 7.18429e-05 2.81469e-05 8.01955e-06 
34 1 1.92523e-06 7.37e-05 5.9e-05 3.99e-06 
33 1 1.62741e-06 6.75e-05 7e-05 3.58e-06 
92 1 1.45722e-06 8.35e-05 7.09e-05 4.94e-06 
91 1 1.60517e-06 8.68557e-05 6.2752e-05 5.49482e-06 
4 1 1.7125e-06 7.42e-05 7.24e-05 5.15e-06 
38 1 1.7125e-06 7.45e-05 5.49e-05 6.26e-06 
14 1 1.84014e-06 6.77e-05 5.91e-05 6.22e-06 
7 1 1.49977e-06 8.86e-05 6.04e-05 6.3e-06 
27 1 1.78695e-06 9.06e-05 6.53e-05 6.92e-06 
30 1 1.78695e-06 9.49e-05 6.19e-05 7.39e-06 
21 1 1.77632e-06 8.88e-05 6.48e-05 7.48e-06 
104 1 1.6029e-06 8.77437e-05 6.34475e-05 8.14916e-06 
23 1 1.46786e-06 8.59e-05 8.41e-05 1.57e-06 
93 1 1.85077e-06 8.01e-05 8.46e-05 2.05e-06 
50 1 1.5955e-06 7.59e-05 8.2e-05 4.17e-06 
18 1 1.85077e-06 7.82e-05 9.82e-05 4.12e-06 
26 1 1.70186e-06 7.11e-05 9.58e-05 5.66e-06 
1 1 1.53168e-06 9.32e-05 7.84e-05 6.01e-06 
81 1 1.95714e-06 8.07e-05 8.04e-05 6.25e-06 
2 1 1.86141e-06 7.56e-05 8.84e-05 6.45e-06 
12 1 1.86141e-06 7.76e-05 7.83e-05 6.6e-06 
46 1 1.64868e-06 8.33e-05 7.69e-05 7.68e-06 
ITEM: TIMESTEP
1800
ITEM: NUMBER OF ATOMS
116
ITEM: BOX BOUNDS ff ff ff
0.0000000000000000e+00 1.0000000000000000e-04
0.0000000000000000e+00 1.0000000000000000e-04
0.0000000000000000e+00 1.0000000000000001e-05
ITEM: ATOMS id type diameter x y z 
22 1 1.63471e-06 1.88e-06 1.38e-05 2.09e-06 
79 1 1.5914e-06 2.46e-05 6.81e-06 3.84e-06 
59 1 1.927e-06 3.77e-06 1.8e-05 5.04e-06 
42 1 1.49397e-06 2.46e-05 1.67e-05 7.55e-06 
78 1 1.80792e-06 1.29e-05 4.7e-05 2.19e-06 
45 1 1.57354e-06 1.01567e-05 4.47528e-05 2.58884e-06 
66 1 1.72131e-06 8.9e-06 2.42e-05 6.83e-06 
48 1 1.65636e-06 4.94e-06 4.13e-05 8.27e-06 
116 1 1.57131e-06 1.10426e-05 4.54467e-05 6.12865e-06 
90 1 1.61305e-06 1.68e-06 5.93e-05 2.25e-06 
87 1 1.55892e-06 6.31e-06 5.18e-05 3.26e-06 
43 1 1.5481e-06 1.32e-05 5.93e-05 3.46e-06 
75 1 1.78627e-06 1.08e-05 6.67e-05 3.34e-06 
9 1 1.90535e-06 5.23e-06 5.49e-05 3.95e-06 
24 1 1.67801e-06 2.81e-06 5.26e-05 4.77e-06 
55 1 1.59933e-06 2.71734e-06 6.51533e-05 4.08128e-06 
110 1 1.59707e-06 3.60204e-06 6.58462e-05 7.61623e-06 
82 1 1.65952e-06 1.29566e-05 8.66527e-05 5.26831e-06 
71 1 1.62388e-06 2.34e-05 8.12e-05 5.84e-06 
68 1 1.85122e-06 1.79e-05 9.21e-05 5.54e-06 
49 1 1.49397e-06 2.83e-05 9.52e-05 7.35e-06 
98 1 1.65718e-06 1.38428e-05 8.73468e-05 8.1528e-06 
85 1 1.65952e-06 4.14566e-05 2.10527e-05 1.84982e-06 
74 1 1.82957e-06 4.13e-05 1.89845e-05 1.86422e-06 
5 1 1.56817e-06 4.60303e-05 1.09683e-05 1.79484e-06 
57 1 1.63471e-06 4.13e-05 2.01045e-05 3.20898e-06 
58 1 1.71049e-06 4.99e-05 1.45e-05 3.52e-06 
44 1 1.93783e-06 3.31e-05 1.65e-05 4.43e-06 
11 1 1.80792e-06 5.14e-05 1.27e-05 4.64e-06 
99 1 1.65718e-06 4.23428e-05 2.17468e-05 4.65919e-06 
15 1 1.93783e-06 4.7e-05 5.61e-06 5.37e-06 
77 1 1.74296e-06 5.92e-05 2.16e-05 5.38e-06 
32 1 1.51562e-06 5.65e-05 4.69e-06 6.27e-06 
97 1 1.5048e-06 3.49e-05 2.34e-05 7.41e-06 
10 1 1.63471e-06 3.41e-05 4.04e-06 8.3e-06 
29 1 1.62388e-06 4.19e-05 1.89e-05 8.36e-06 
73 1 1.62388e-06 6.29e-05 1.99e-05 8.24e-06 
106 1 1.66e-06 4.72031e-05 1.16511e-05 4.78735e-06 
63 1 1.74296e-06 5.52e-05 3.74e-05 1.63e-06 
96 1 1.55983e-06 3.81308e-05 3.00686e-05 1.79318e-06 
37 1 1.62513e-06 6.38561e-05 4.82141e-05 3.84856e-06 
40 1 1.59218e-06 5.80027e-05 2.75747e-05 4.90153e-06 
84 1 1.86205e-06 5.3e-05 4.63e-05 5.07e-06 
72 1 1.57821e-06 5.34367e-05 4.05863e-05 5.03808e-06 
39 1 1.5741e-06 3.56936e-05 4.49186e-05 8.18241e-06 
16 1 1.51562e-06 6.42744e-05 4.77836e-05 7.06938e-06 
105 1 1.62283e-06 6.48105e-05 4.92008e-05 7.37219e-06 
69 1 1.49397e-06 5.75e-05 2.91e-05 8.51e-06 
109 1 1.65117e-06 3.93025e-05 3.07508e-05 4.8457e-06 
111 1 1.6216e-06 3.55036e-05 4.38658e-05 5.31821e-06 
113 1 1.58704e-06 6.11921e-05 2.60278e-05 6.03663e-06 
114 1 1.60085e-06 5.1147e-05 3.85996e-05 7.19729e-06 
54 1 1.5048e-06 3.58e-05 5.42e-05 1.55e-06 
103 1 1.65647e-06 4.76032e-05 6.82638e-05 1.87926e-06 
80 1 1.65092e-06 4.94569e-05 6.8653e-05 1.84836e-06 
17 1 1.87287e-06 5.77e-05 6.67e-05 2.42e-06 
47 1 1.59319e-06 3.73313e-05 6.16689e-05 3.29399e-06 
100 1 1.64859e-06 5.03424e-05 6.93466e-05 4.4978e-06 
51 1 1.60796e-06 4.77939e-05 6.93205e-05 4.56541e-06 
28 1 1.618e-06 5.28052e-05 6.84735e-05 5.39241e-06 
3 1 1.67801e-06 4.34e-05 6.2e-05 6.29e-06 
102 1 1.68649e-06 3.8502e-05 6.23505e-05 6.74415e-06 
52 1 1.66718e-06 5.05e-05 5.39e-05 7.38e-06 
13 1 1.56975e-06 6.3e-05 6.36e-05 8.47e-06 
107 1 1.61277e-06 5.59897e-05 6.6929e-05 6.52575e-06 
25 1 1.86205e-06 3.64e-05 7.93e-05 1.91e-06 
88 1 1.52645e-06 5.45e-05 8.61e-05 4e-06 
89 1 1.59933e-06 5.07573e-05 8.82533e-05 1.95128e-06 
65 1 1.78627e-06 5.62e-05 7.68e-05 7.13e-06 
36 1 1.95948e-06 5.63e-05 9.71e-05 7.02e-06 
112 1 1.59707e-06 5.1642e-05 8.89462e-05 5.48623e-06 
31 1 1.65092e-06 6.94569e-05 1.3053e-05 2.2997e-06 
6 1 1.8837e-06 7.29e-05 1.78e-05 2.37e-06 
56 1 1.95948e-06 7.5e-05 1.3e-05 2.8e-06 
67 1 1.51562e-06 7.11e-05 1.75e-05 4.63e-06 
19 1 1.66718e-06 7.65e-05 1.28e-05 5.34e-06 
101 1 1.64859e-06 7.03424e-05 1.37466e-05 5.8378e-06 
94 1 1.81875e-06 8.31e-05 1.05e-05 6.33e-06 
86 1 1.49397e-06 9.73e-05 1.87e-05 6.32e-06 
8 1 1.67801e-06 9.12e-05 4.66e-05 1.66e-06 
60 1 1.81875e-06 8.30414e-05 4.10829e-05 2.47407e-06 
35 1 1.81875e-06 8.23338e-05 3.96676e-05 3.32348e-06 
53 1 1.48314e-06 6.63e-05 3.01e-05 4.2e-06 
64 1 1.81875e-06 9.55e-05 2.73e-05 4.95e-06 
62 1 1.5481e-06 8.61e-05 3.06e-05 4.55e-06 
83 1 1.61653e-06 7.09565e-05 2.74526e-05 4.47795e-06 
41 1 1.81875e-06 8.59e-05 4.19e-05 6.28e-06 
70 1 1.5914e-06 7.25e-05 3.32e-05 6.58e-06 
76 1 1.91618e-06 6.89e-05 4.68e-05 6.74e-06 
61 1 1.55892e-06 6.7e-05 4.75e-05 7.72e-06 
20 1 1.8404e-06 9.65e-05 4.17e-05 8.14e-06 
95 1 1.56975e-06 7.04e-05 4.82e-05 8.33e-06 
108 1 1.61425e-06 7.18429e-05 2.81469e-05 8.01955e-06 
34 1 1.95948e-06 7.37e-05 5.9e-05 3.99e-06 
33 1 1.65636e-06 6.75e-05 7e-05 3.58e-06 
92 1 1.48314e-06 8.35e-05 7.09e-05 4.94e-06 
91 1 1.63373e-06 8.68557e-05 6.2752e-05 5.49482e-06 
4 1 1.74296e-06 7.42e-05 7.24e-05 5.15e-06 
38 1 1.74296e-06 7.45e-05 5.49e-05 6.26e-06 
14 1 1.87287e-06 6.77e-05 5.91e-05 6.22e-06 
7 1 1.52645e-06 8.86e-05 6.04e-05 6.3e-06 
27 1 1.81875e-06 9.06e-05 6.53e-05 6.92e-06 
30 1 1.81875e-06 9.49e-05 6.19e-05 7.39e-06 
21 1 1.80792e-06 8.88e-05 6.48e-05 7.48e-06 
104 1 1.63142e-06 8.77437e-05 6.34475e-05 8.14916e-06 
23 1 1.49397e-06 8.59e-05 8.41e-05 1.57e-06 
93 1 1.8837e-06 8.01e-05 8.46e-05 2.05e-06 
50 1 1.62388e-06 7.59e-05 8.2e-05 4.17e-06 
18 1 1.8837e-06 7.82e-05 9.82e-05 4.12e-06 
26 1 1.73214e-06 7.11e-05 9.58e-05 5.66e-06 