 NUFEB Simulation

     56 atoms 
     2 atom types 
     4 nutrients 

  0.0e-4   1.00e-04  xlo xhi 
  0.0e-4   1.00e-04  ylo yhi 
  0.0e-4   1.00e-05  zlo zhi 

 Atoms 

     1 1 1.84e-06  370 9.37e-05 3.12e-05 3.38e-06 1.84e-06 
     2 1 1.38e-06  370 7.12e-05 1.52e-05 7.23e-06 1.38e-06 
     3 1 1.78e-06  370 1.40e-05 5.20e-05 3.15e-06 1.78e-06 
     4 1 1.82e-06  370 1.43e-05 8.81e-06 6.46e-06 1.82e-06 
     5 1 1.64e-06  370 7.17e-05 6.75e-06 8.13e-06 1.64e-06 
     6 1 1.57e-06  370 5.68e-05 2.59e-06 7.85e-06 1.57e-06 
     7 1 1.91e-06  370 9.47e-05 3.32e-06 7.76e-06 1.91e-06 
     8 1 1.37e-06  370 2.95e-05 9.31e-05 3.77e-06 1.37e-06 
     9 1 1.70e-06  370 5.72e-05 1.45e-05 5.08e-06 1.70e-06 
     10 1 1.45e-06  370 2.99e-05 3.78e-05 2.97e-06 1.45e-06 
     11 1 1.58e-06  370 4.34e-05 9.50e-05 2.69e-06 1.58e-06 
     12 2 8.94e-07  236 8.93e-05 5.74e-05 7.94e-06 8.94e-07 
     13 2 9.40e-07  236 6.00e-05 7.95e-05 2.26e-06 9.40e-07 
     14 2 1.00e-06  236 1.99e-05 7.26e-05 6.24e-06 1.00e-06 
     15 2 9.62e-07  236 7.49e-05 9.74e-05 7.59e-06 9.62e-07 
     16 2 9.96e-07  236 9.35e-05 8.87e-05 5.54e-06 9.96e-07 
     17 2 1.04e-06  236 4.91e-06 1.20e-05 2.03e-06 1.04e-06 
     18 2 1.01e-06  236 7.66e-05 9.47e-05 1.85e-06 1.01e-06 
     19 2 1.03e-06  236 6.06e-05 1.54e-05 3.31e-06 1.03e-06 
     20 2 1.01e-06  236 8.08e-05 4.55e-05 4.35e-06 1.01e-06 
     21 2 9.49e-07  236 2.54e-05 6.54e-05 8.71e-06 9.49e-07 
     22 2 1.03e-06  236 8.08e-06 6.12e-06 8.01e-06 1.03e-06 
     23 2 1.02e-06  236 2.68e-05 5.83e-05 7.11e-06 1.02e-06 
     24 2 8.88e-07  236 7.90e-05 2.23e-05 1.03e-06 8.88e-07 
     25 2 1.03e-06  236 8.19e-05 4.86e-05 3.72e-06 1.03e-06 
     26 2 9.55e-07  236 7.57e-05 2.15e-05 4.51e-06 9.55e-07 
     27 2 9.61e-07  236 9.53e-05 1.44e-05 2.08e-06 9.61e-07 
     28 2 8.94e-07  236 7.04e-05 7.28e-05 1.19e-06 8.94e-07 
     29 2 9.36e-07  236 1.78e-05 6.76e-05 1.79e-06 9.36e-07 
     30 2 1.03e-06  236 1.85e-05 6.46e-06 2.79e-06 1.03e-06 
     31 2 1.04e-06  236 2.24e-05 6.89e-05 2.91e-06 1.04e-06 
     32 2 1.04e-06  236 8.65e-05 9.62e-05 3.83e-06 1.04e-06 
     33 2 9.93e-07  236 2.27e-05 9.54e-05 3.87e-06 9.93e-07 
     34 2 9.85e-07  236 4.72e-05 2.67e-05 8.33e-06 9.85e-07 
     35 2 9.01e-07  236 3.01e-05 3.57e-05 8.42e-06 9.01e-07 
     36 2 9.58e-07  236 1.21e-05 1.12e-05 2.53e-06 9.58e-07 
     37 2 9.70e-07  236 5.30e-05 7.44e-05 4.56e-06 9.70e-07 
     38 2 1.03e-06  236 1.19e-06 2.17e-05 8.55e-06 1.03e-06 
     39 2 9.68e-07  236 9.75e-05 5.44e-05 1.44e-06 9.68e-07 
     40 2 9.81e-07  236 6.38e-05 3.50e-05 2.97e-06 9.81e-07 
     41 2 9.48e-07  236 2.08e-05 2.64e-05 6.87e-06 9.48e-07 
     42 2 9.86e-07  236 8.88e-05 4.82e-05 3.59e-06 9.86e-07 
     43 2 9.16e-07  236 8.02e-05 3.32e-05 7.49e-06 9.16e-07 
     44 2 9.47e-07  236 2.80e-05 5.31e-05 1.61e-06 9.47e-07 
     45 2 8.88e-07  236 4.66e-05 8.08e-05 4.27e-06 8.88e-07 
     46 2 9.58e-07  236 3.17e-05 3.33e-05 2.96e-06 9.58e-07 
     47 2 9.68e-07  236 1.19e-05 4.62e-05 1.19e-06 9.68e-07 
     48 2 1.02e-06  236 6.40e-05 9.45e-05 5.45e-06 1.02e-06 
     49 2 9.69e-07  236 3.56e-05 4.84e-05 3.51e-06 9.69e-07 
     50 2 1.00e-06  236 3.80e-05 3.24e-05 3.01e-06 1.00e-06 
     51 2 1.00e-06  236 6.22e-05 8.04e-05 1.01e-06 1.00e-06 
     52 2 9.54e-07  236 6.13e-05 8.45e-05 2.07e-06 9.54e-07 
     53 2 8.93e-07  236 7.71e-05 3.75e-06 6.54e-06 8.93e-07 
     54 2 9.09e-07  236 9.51e-06 4.55e-05 8.20e-06 9.09e-07 
     55 2 9.73e-07  236 2.51e-05 2.37e-05 3.80e-06 9.73e-07 
     56 2 9.32e-07  236 3.77e-05 6.64e-05 8.49e-06 9.32e-07 

 Nutrients 

     1 sub g nn nn nn 1.00e-01 1.00e-01 
     2 o2 l nn nn nn 9.00e-03 9.00e-03 
     3 suc l nn nn nn 3.42e-20 3.42e-20 
     4 co2 l nn nn nn 4.40e+01 4.40e+01 

 Type Name 

     1 cyano  
     2 ecw  

 Diffusion Coeffs 

     sub 0 
     o2 2.3e-09 
     suc 5.2e-10 
     co2 1.9e-09 

 Growth Rate 

     cyano 1.67e-05 
     ecw 0.00027 

 Ks 

     cyano 0.00035 0.0002 0.01 0.000138 
     ecw 0 0.001 3.6 0.05 

 Yield 

     cyano 0.55 
     ecw 0.43 

 Maintenance 

     cyano 0 
     ecw 9.5e-07 

 Decay 

     cyano 0 
     ecw 2e-05 



