LAMMPS (5 Nov 2016)
# NUFEB simulation

units si
atom_style      bio
atom_modify     map array sort 1000 5.0e-6
boundary        pp pp ff
newton          off
processors 4 1 1

comm_modify     vel yes

read_data_bio atom.in
  orthogonal box = (0 0 0) to (0.0004 3e-05 0.0006)
  4 by 1 by 1 MPI processor grid
  reading atoms ...
  0 atoms
  5 nutrients

group HET type 1
0 atoms in group HET
group AOB type 2
0 atoms in group AOB

variable  x equal 40
variable  y equal 3
variable  z equal 1

lattice sc 2e-5 origin 0.75 0.5 0.5
Lattice spacing in x,y,z = 2e-05 2e-05 2e-05
region reg block 0 $x 0 $y 0 $z
region reg block 0 40 0 $y 0 $z
region reg block 0 40 0 3 0 $z
region reg block 0 40 0 3 0 1
create_atoms 1 random 200 1321 reg
Created 200 atoms

#lattice sc 2e-5 origin 0.25 0.5 0.5
region reg2 block 0 $x 0 $y 0 $z
region reg2 block 0 40 0 $y 0 $z
region reg2 block 0 40 0 3 0 $z
region reg2 block 0 40 0 3 0 1
create_atoms 2 random 200 74564 reg
Created 200 atoms

neighbor        5e-7 bin

set type 1 diameter 9.5e-6
  200 settings made for diameter
set type 1 density 13.5
  200 settings made for density
set type 2 diameter 9.5e-6
  200 settings made for diameter
set type 2 density 13.5
  200 settings made for density

neigh_modify    delay 0 one 2000

##############Define DEM Variables&Commands##############

pair_style  gran/hooke/history 1.e-4 NULL 1.e-5 NULL 0.0 1
pair_coeff  * *

timestep 1440

variable kanc equal 50

fix 1 all nve/limit 1e-7
fix fv all viscous 1e-5

fix zw all wall/gran hooke/history 2000 NULL 500.0 NULL 1.5 0 zplane  0.0  6e-04

fix zwa all walladh v_kanc zplane  0.0   6e-04

variable ke equal 5e+10
#fix j1 all epsadh 1 v_ke 1

##############Define IBm Variables##############

#EPS density, ratio variables and division diameter
variable EPSdens equal 30
variable EPSratio equal 1.25
variable divDia equal 1e-5

#kinetics variables
variable etaHET equal 0.0
variable diffT equal 1e-3
variable tol equal 1e-5
variable layer equal 0

##############Define IBm Commands##############

fix k1 all kinetics 1 40 3 60 v_diffT v_layer niter 5000 demflag 0
fix kgm all kinetics/growth/monod v_EPSdens v_etaHET
fix g1 all kinetics/diffusion v_tol pp pp nd kg bulk 2.31e-7 1.25e-3 0.1
fix d1 all divide 1 v_EPSdens v_divDia 67456 demflag 0
fix vf1 all verify 1 bm3 demflag 0

##############Simulation Output##############

compute myHeight all avg_height
compute myMass all biomass
compute myNtype all ntypes

#dump du0 all bio 5010 biomass ntypes bulk
#dump		id all custom 120100 snapshot.bubblemd id type diameter x y z
thermo_style    custom step cpu atoms c_myHeight c_myNtype[*] c_myMass[*]
thermo          1001
thermo_modify   lost warn

##############Two-loops Run##############

run 3600 pre no post no every 1 "fix_modify k1 demflag 1" "fix_modify d1 demflag 1" "fix_modify vf1 demflag 1" "timestep 0.1" "run 2000 pre no post no" "timestep 1440" "fix_modify k1 demflag 0" "fix_modify d1 demflag 0" "fix_modify vf1 demflag 0"
WARNING: EPS is not defined in fix_kinetics/kinetics/monod (../fix_bio_kinetics_monod.cpp:253)
ae = 1.450000e+02, top = 2.468173e-05, base = 4.769412e-06, ave_h = 1.001895e-05 
Neighbor list info ...
  2 neighbor list requests
  update every 1 steps, delay 0 steps, check yes
  max neighbors/atom: 2000, page size: 100000
  master list distance cutoff = 1e-05
  ghost atom cutoff = 1e-05
  binsize = 5e-06 -> bins = 80 6 120
Memory usage per processor = 7.47557 Mbytes
Step CPU Atoms c_myHeight c_myNtype[1] c_myNtype[2] c_myNtype[3] c_myMass[1] c_myMass[2] c_myMass[3] 
       0            0      400 1.8141073e-05            0          200          200 2.4241707e-12 1.2120854e-12 1.2120854e-12 
number of iterations: 549 
maxz = 2.489477e-05 
S-sub-bulk = 2.889184e-02
S-sub-base = 2.986307e-02
S-nh4-bulk = 2.886433e-02
S-nh4-base = 2.990744e-02

       1  0.023680925      400 1.8302305e-05            0          200          200 2.5589486e-12 1.3088896e-12 1.250059e-12 
Loop time of 0.0236964 on 4 procs for 1 steps with 400 atoms

95.6% CPU use with 4 MPI tasks x no OpenMP threads
fix_modify k1 demflag 1
fix_modify d1 demflag 1
fix_modify vf1 demflag 1
timestep 0.1
run 2000 pre no post no
Step CPU Atoms c_myHeight c_myNtype[1] c_myNtype[2] c_myNtype[3] c_myMass[1] c_myMass[2] c_myMass[3] 
       1            0      400 1.8302305e-05            0          200          200 2.5589486e-12 1.3088896e-12 1.250059e-12 
    1001  0.057500124      400 2.7775596e-05            0          200          200 2.5589486e-12 1.3088896e-12 1.250059e-12 
    2001    0.0949471      400 2.7834648e-05            0          200          200 2.5589486e-12 1.3088896e-12 1.250059e-12 
Loop time of 0.0949636 on 4 procs for 2000 steps with 400 atoms

99.3% CPU use with 4 MPI tasks x no OpenMP threads
timestep 1440
fix_modify k1 demflag 0
fix_modify d1 demflag 0
fix_modify vf1 demflag 0
Step CPU Atoms c_myHeight c_myNtype[1] c_myNtype[2] c_myNtype[3] c_myMass[1] c_myMass[2] c_myMass[3] 
    2001            0      400 2.7834648e-05            0          200          200 2.5589486e-12 1.3088896e-12 1.250059e-12 
number of iterations: 880 
maxz = 3.962167e-05 
S-sub-bulk = 2.799463e-02
S-sub-base = 2.885586e-02
S-nh4-bulk = 2.799586e-02
S-nh4-base = 2.880545e-02

    2002  0.040560007      400 2.7911705e-05            0          200          200 2.7021922e-12 1.4129918e-12 1.2892004e-12 
Loop time of 0.0405765 on 4 procs for 1 steps with 400 atoms

99.6% CPU use with 4 MPI tasks x no OpenMP threads
fix_modify k1 demflag 1
fix_modify d1 demflag 1
fix_modify vf1 demflag 1
timestep 0.1
run 2000 pre no post no
Step CPU Atoms c_myHeight c_myNtype[1] c_myNtype[2] c_myNtype[3] c_myMass[1] c_myMass[2] c_myMass[3] 
    2002            0      400 2.7911705e-05            0          200          200 2.7021922e-12 1.4129918e-12 1.2892004e-12 
    3003  0.042623997      400 2.8855866e-05            0          200          200 2.7021922e-12 1.4129918e-12 1.2892004e-12 
    4002  0.075367928      400 2.8816571e-05            0          200          200 2.7021922e-12 1.4129918e-12 1.2892004e-12 
Loop time of 0.0753872 on 4 procs for 2000 steps with 400 atoms

99.2% CPU use with 4 MPI tasks x no OpenMP threads
timestep 1440
fix_modify k1 demflag 0
fix_modify d1 demflag 0
fix_modify vf1 demflag 0
Step CPU Atoms c_myHeight c_myNtype[1] c_myNtype[2] c_myNtype[3] c_myMass[1] c_myMass[2] c_myMass[3] 
    4002            0      400 2.8816571e-05            0          200          200 2.7021922e-12 1.4129918e-12 1.2892004e-12 
number of iterations: 1220 
maxz = 4.002609e-05 
S-sub-bulk = 2.724706e-02
S-sub-base = 2.792722e-02
S-nh4-bulk = 2.732439e-02
S-nh4-base = 2.790255e-02

    4003  0.065608978      400 2.8931287e-05            0          200          200 2.8543164e-12 1.5248382e-12 1.3294782e-12 
Loop time of 0.0656214 on 4 procs for 1 steps with 400 atoms

99.5% CPU use with 4 MPI tasks x no OpenMP threads
fix_modify k1 demflag 1
fix_modify d1 demflag 1
fix_modify vf1 demflag 1
timestep 0.1
run 2000 pre no post no
Step CPU Atoms c_myHeight c_myNtype[1] c_myNtype[2] c_myNtype[3] c_myMass[1] c_myMass[2] c_myMass[3] 
    4003            0      400 2.8931287e-05            0          200          200 2.8543164e-12 1.5248382e-12 1.3294782e-12 
    4004 7.9870224e-05      400 2.8908821e-05            0          200          200 2.8543164e-12 1.5248382e-12 1.3294782e-12 
    5005  0.045200825      400 2.9402128e-05            0          200          200 2.8543164e-12 1.5248382e-12 1.3294782e-12 
    6003  0.079931021      400 2.9691296e-05            0          200          200 2.8543164e-12 1.5248382e-12 1.3294782e-12 
Loop time of 0.0799482 on 4 procs for 2000 steps with 400 atoms

99.5% CPU use with 4 MPI tasks x no OpenMP threads
timestep 1440
fix_modify k1 demflag 0
fix_modify d1 demflag 0
fix_modify vf1 demflag 0
Step CPU Atoms c_myHeight c_myNtype[1] c_myNtype[2] c_myNtype[3] c_myMass[1] c_myMass[2] c_myMass[3] 
    6003            0      400 2.9691296e-05            0          200          200 2.8543164e-12 1.5248382e-12 1.3294782e-12 
number of iterations: 1135 
maxz = 4.282246e-05 
S-sub-bulk = 2.660185e-02
S-sub-base = 2.715995e-02
S-nh4-bulk = 2.679501e-02
S-nh4-base = 2.722907e-02

    6004  0.053279877      600 3.1411661e-05            0          400          200 3.0160583e-12 1.6450817e-12 1.3709766e-12 
Loop time of 0.0532921 on 4 procs for 1 steps with 600 atoms

99.5% CPU use with 4 MPI tasks x no OpenMP threads
fix_modify k1 demflag 1
fix_modify d1 demflag 1
fix_modify vf1 demflag 1
timestep 0.1
run 2000 pre no post no
Step CPU Atoms c_myHeight c_myNtype[1] c_myNtype[2] c_myNtype[3] c_myMass[1] c_myMass[2] c_myMass[3] 
    6004            0      600 3.1411661e-05            0          400          200 3.0160583e-12 1.6450817e-12 1.3709766e-12 
    6006 0.00014805794      600 3.1468196e-05            0          400          200 3.0160583e-12 1.6450817e-12 1.3709766e-12 
    7007  0.045078993      600 3.4646414e-05            0          400          200 3.0160583e-12 1.6450817e-12 1.3709766e-12 
    8004  0.073286057      600 3.4771478e-05            0          400          200 3.0160583e-12 1.6450817e-12 1.3709766e-12 
Loop time of 0.0733004 on 4 procs for 2000 steps with 600 atoms

100.0% CPU use with 4 MPI tasks x no OpenMP threads
timestep 1440
fix_modify k1 demflag 0
fix_modify d1 demflag 0
fix_modify vf1 demflag 0
Step CPU Atoms c_myHeight c_myNtype[1] c_myNtype[2] c_myNtype[3] c_myMass[1] c_myMass[2] c_myMass[3] 
    8004            0      600 3.4771478e-05            0          400          200 3.0160583e-12 1.6450817e-12 1.3709766e-12 
number of iterations: 1373 
maxz = 4.492358e-05 
S-sub-bulk = 2.602509e-02
S-sub-base = 2.649065e-02
S-nh4-bulk = 2.636996e-02
S-nh4-base = 2.667395e-02

    8005  0.059325933      600 3.4846002e-05            0          400          200 3.1879933e-12 1.7742996e-12 1.4136937e-12 
Loop time of 0.059341 on 4 procs for 1 steps with 600 atoms

98.6% CPU use with 4 MPI tasks x no OpenMP threads
fix_modify k1 demflag 1
fix_modify d1 demflag 1
fix_modify vf1 demflag 1
timestep 0.1
run 2000 pre no post no
Step CPU Atoms c_myHeight c_myNtype[1] c_myNtype[2] c_myNtype[3] c_myMass[1] c_myMass[2] c_myMass[3] 
    8005            0      600 3.4846002e-05            0          400          200 3.1879933e-12 1.7742996e-12 1.4136937e-12 
    8008 0.00034499168      600 3.499993e-05            0          400          200 3.1879933e-12 1.7742996e-12 1.4136937e-12 
    9009  0.044047117      600 3.573299e-05            0          400          200 3.1879933e-12 1.7742996e-12 1.4136937e-12 
   10005  0.073485136      600 3.5745397e-05            0          400          200 3.1879933e-12 1.7742996e-12 1.4136937e-12 
Loop time of 0.0735011 on 4 procs for 2000 steps with 600 atoms

100.0% CPU use with 4 MPI tasks x no OpenMP threads
timestep 1440
fix_modify k1 demflag 0
fix_modify d1 demflag 0
fix_modify vf1 demflag 0
Step CPU Atoms c_myHeight c_myNtype[1] c_myNtype[2] c_myNtype[3] c_myMass[1] c_myMass[2] c_myMass[3] 
   10005            0      600 3.5745397e-05            0          400          200 3.1879933e-12 1.7742996e-12 1.4136937e-12 
number of iterations: 1300 
maxz = 4.875116e-05 
S-sub-bulk = 2.549035e-02
S-sub-base = 2.588786e-02
S-nh4-bulk = 2.601904e-02
S-nh4-base = 2.624075e-02

   10006  0.060673952      684 3.685194e-05            0          400          284 3.3709188e-12 1.913207e-12 1.4577117e-12 
Loop time of 0.0606937 on 4 procs for 1 steps with 684 atoms

100.0% CPU use with 4 MPI tasks x no OpenMP threads
fix_modify k1 demflag 1
fix_modify d1 demflag 1
fix_modify vf1 demflag 1
timestep 0.1
run 2000 pre no post no
Step CPU Atoms c_myHeight c_myNtype[1] c_myNtype[2] c_myNtype[3] c_myMass[1] c_myMass[2] c_myMass[3] 
   10006            0      684 3.685194e-05            0          400          284 3.3709188e-12 1.913207e-12 1.4577117e-12 
   10010 0.00045394897      684 3.7127666e-05            0          400          284 3.3709188e-12 1.913207e-12 1.4577117e-12 
   11011   0.05257988      684 3.8328398e-05            0          400          284 3.3709188e-12 1.913207e-12 1.4577117e-12 
   12006  0.083586931      684 3.8302541e-05            0          400          284 3.3709188e-12 1.913207e-12 1.4577117e-12 
Loop time of 0.0836042 on 4 procs for 2000 steps with 684 atoms

100.0% CPU use with 4 MPI tasks x no OpenMP threads
timestep 1440
fix_modify k1 demflag 0
fix_modify d1 demflag 0
fix_modify vf1 demflag 0
Step CPU Atoms c_myHeight c_myNtype[1] c_myNtype[2] c_myNtype[3] c_myMass[1] c_myMass[2] c_myMass[3] 
   12006            0      684 3.8302541e-05            0          400          284 3.3709188e-12 1.913207e-12 1.4577117e-12 
number of iterations: 1263 
maxz = 4.893928e-05 
S-sub-bulk = 2.497824e-02
S-sub-base = 2.533006e-02
S-nh4-bulk = 2.572113e-02
S-nh4-base = 2.588223e-02

   12007  0.058604002      800 3.8428961e-05            0          400          400 3.5655941e-12 2.0625167e-12 1.5030775e-12 
Loop time of 0.0586195 on 4 procs for 1 steps with 800 atoms

100.0% CPU use with 4 MPI tasks x no OpenMP threads
fix_modify k1 demflag 1
fix_modify d1 demflag 1
fix_modify vf1 demflag 1
timestep 0.1
run 2000 pre no post no
Step CPU Atoms c_myHeight c_myNtype[1] c_myNtype[2] c_myNtype[3] c_myMass[1] c_myMass[2] c_myMass[3] 
   12007            0      800 3.8428961e-05            0          400          400 3.5655941e-12 2.0625167e-12 1.5030775e-12 
   12012 0.00073003769      800 3.8610438e-05            0          400          400 3.5655941e-12 2.0625167e-12 1.5030775e-12 
   13013  0.064502001      800 4.0549949e-05            0          400          400 3.5655941e-12 2.0625167e-12 1.5030775e-12 
   14007   0.10464716      800 4.0582972e-05            0          400          400 3.5655941e-12 2.0625167e-12 1.5030775e-12 
Loop time of 0.104665 on 4 procs for 2000 steps with 800 atoms

100.0% CPU use with 4 MPI tasks x no OpenMP threads
timestep 1440
fix_modify k1 demflag 0
fix_modify d1 demflag 0
fix_modify vf1 demflag 0
Step CPU Atoms c_myHeight c_myNtype[1] c_myNtype[2] c_myNtype[3] c_myMass[1] c_myMass[2] c_myMass[3] 
   14007            0      800 4.0582972e-05            0          400          400 3.5655941e-12 2.0625167e-12 1.5030775e-12 
number of iterations: 1238 
maxz = 4.952926e-05 
S-sub-bulk = 2.447388e-02
S-sub-base = 2.480593e-02
S-nh4-bulk = 2.546065e-02
S-nh4-base = 2.558490e-02

   14008  0.058292866      800 4.0609301e-05            0          400          400 3.7728368e-12 2.2229964e-12 1.5498404e-12 
Loop time of 0.0583084 on 4 procs for 1 steps with 800 atoms

100.0% CPU use with 4 MPI tasks x no OpenMP threads
fix_modify k1 demflag 1
fix_modify d1 demflag 1
fix_modify vf1 demflag 1
timestep 0.1
run 2000 pre no post no
Step CPU Atoms c_myHeight c_myNtype[1] c_myNtype[2] c_myNtype[3] c_myMass[1] c_myMass[2] c_myMass[3] 
   14008            0      800 4.0609301e-05            0          400          400 3.7728368e-12 2.2229964e-12 1.5498404e-12 
   14014 0.00097703934      800  4.08707e-05            0          400          400 3.7728368e-12 2.2229964e-12 1.5498404e-12 
   15015  0.064621925      800 4.1740091e-05            0          400          400 3.7728368e-12 2.2229964e-12 1.5498404e-12 
   16008   0.10767603      800 4.1791843e-05            0          400          400 3.7728368e-12 2.2229964e-12 1.5498404e-12 
Loop time of 0.107694 on 4 procs for 2000 steps with 800 atoms

100.0% CPU use with 4 MPI tasks x no OpenMP threads
timestep 1440
fix_modify k1 demflag 0
fix_modify d1 demflag 0
fix_modify vf1 demflag 0
Step CPU Atoms c_myHeight c_myNtype[1] c_myNtype[2] c_myNtype[3] c_myMass[1] c_myMass[2] c_myMass[3] 
   16008            0      800 4.1791843e-05            0          400          400 3.7728368e-12 2.2229964e-12 1.5498404e-12 
number of iterations: 1251 
maxz = 5.146416e-05 
S-sub-bulk = 2.396638e-02
S-sub-base = 2.427722e-02
S-nh4-bulk = 2.522656e-02
S-nh4-base = 2.531699e-02

   16009  0.059668064      800 4.1856272e-05            0          400          400 3.9934458e-12 2.3954089e-12 1.5980369e-12 
Loop time of 0.0596843 on 4 procs for 1 steps with 800 atoms

100.0% CPU use with 4 MPI tasks x no OpenMP threads
fix_modify k1 demflag 1
fix_modify d1 demflag 1
fix_modify vf1 demflag 1
timestep 0.1
run 2000 pre no post no
Step CPU Atoms c_myHeight c_myNtype[1] c_myNtype[2] c_myNtype[3] c_myMass[1] c_myMass[2] c_myMass[3] 
   16009            0      800 4.1856272e-05            0          400          400 3.9934458e-12 2.3954089e-12 1.5980369e-12 
   16016 0.0010371208      800 4.2090218e-05            0          400          400 3.9934458e-12 2.3954089e-12 1.5980369e-12 
   17017   0.06695509      800 4.310643e-05            0          400          400 3.9934458e-12 2.3954089e-12 1.5980369e-12 
   18009    0.1127069      800 4.3143624e-05            0          400          400 3.9934458e-12 2.3954089e-12 1.5980369e-12 
Loop time of 0.112726 on 4 procs for 2000 steps with 800 atoms

100.0% CPU use with 4 MPI tasks x no OpenMP threads
timestep 1440
fix_modify k1 demflag 0
fix_modify d1 demflag 0
fix_modify vf1 demflag 0
Step CPU Atoms c_myHeight c_myNtype[1] c_myNtype[2] c_myNtype[3] c_myMass[1] c_myMass[2] c_myMass[3] 
   18009            0      800 4.3143624e-05            0          400          400 3.9934458e-12 2.3954089e-12 1.5980369e-12 
number of iterations: 1627 
maxz = 5.249378e-05 
S-sub-bulk = 2.344926e-02
S-sub-base = 2.367199e-02
S-nh4-bulk = 2.501253e-02
S-nh4-base = 2.503031e-02

   18010  0.083717823      811 4.3240478e-05            0          411          400 4.2280152e-12 2.5803733e-12 1.6476419e-12 
Loop time of 0.083735 on 4 procs for 1 steps with 811 atoms

100.0% CPU use with 4 MPI tasks x no OpenMP threads
fix_modify k1 demflag 1
fix_modify d1 demflag 1
fix_modify vf1 demflag 1
timestep 0.1
run 2000 pre no post no
Step CPU Atoms c_myHeight c_myNtype[1] c_myNtype[2] c_myNtype[3] c_myMass[1] c_myMass[2] c_myMass[3] 
   18010            0      811 4.3240478e-05            0          411          400 4.2280152e-12 2.5803733e-12 1.6476419e-12 
   18018 0.0010638237      811 4.3541221e-05            0          411          400 4.2280152e-12 2.5803733e-12 1.6476419e-12 
   19019  0.076098919      811 4.4789397e-05            0          411          400 4.2280152e-12 2.5803733e-12 1.6476419e-12 
   20010   0.12835979      811 4.5164716e-05            0          411          400 4.2280152e-12 2.5803733e-12 1.6476419e-12 
Loop time of 0.128379 on 4 procs for 2000 steps with 811 atoms

100.0% CPU use with 4 MPI tasks x no OpenMP threads
timestep 1440
fix_modify k1 demflag 0
fix_modify d1 demflag 0
fix_modify vf1 demflag 0
Step CPU Atoms c_myHeight c_myNtype[1] c_myNtype[2] c_myNtype[3] c_myMass[1] c_myMass[2] c_myMass[3] 
   20010            0      811 4.5164716e-05            0          411          400 4.2280152e-12 2.5803733e-12 1.6476419e-12 
number of iterations: 1541 
maxz = 5.540558e-05 
S-sub-bulk = 2.291352e-02
S-sub-base = 2.312857e-02
S-nh4-bulk = 2.481010e-02
S-nh4-base = 2.480872e-02

   20011  0.082636118      891 4.5431366e-05            0          491          400 4.477657e-12 2.7788956e-12 1.6987613e-12 
Loop time of 0.0826538 on 4 procs for 1 steps with 891 atoms

100.0% CPU use with 4 MPI tasks x no OpenMP threads
fix_modify k1 demflag 1
fix_modify d1 demflag 1
fix_modify vf1 demflag 1
timestep 0.1
run 2000 pre no post no
Step CPU Atoms c_myHeight c_myNtype[1] c_myNtype[2] c_myNtype[3] c_myMass[1] c_myMass[2] c_myMass[3] 
   20011            0      891 4.5431366e-05            0          491          400 4.477657e-12 2.7788956e-12 1.6987613e-12 
   20020 0.0016150475      891 4.5839632e-05            0          491          400 4.477657e-12 2.7788956e-12 1.6987613e-12 
   21021  0.089754105      891 4.8023751e-05            0          491          400 4.477657e-12 2.7788956e-12 1.6987613e-12 
   22011   0.14837098      891 4.8196404e-05            0          491          400 4.477657e-12 2.7788956e-12 1.6987613e-12 
Loop time of 0.148391 on 4 procs for 2000 steps with 891 atoms

100.0% CPU use with 4 MPI tasks x no OpenMP threads
timestep 1440
fix_modify k1 demflag 0
fix_modify d1 demflag 0
fix_modify vf1 demflag 0
Step CPU Atoms c_myHeight c_myNtype[1] c_myNtype[2] c_myNtype[3] c_myMass[1] c_myMass[2] c_myMass[3] 
   22011            0      891 4.8196404e-05            0          491          400 4.477657e-12 2.7788956e-12 1.6987613e-12 
number of iterations: 1592 
maxz = 6.049830e-05 
S-sub-bulk = 2.235361e-02
S-sub-base = 2.256447e-02
S-nh4-bulk = 2.461442e-02
S-nh4-base = 2.460125e-02

   22012  0.088311911      986 4.8583014e-05            0          586          400 4.7433318e-12 2.9918775e-12 1.7514544e-12 
Loop time of 0.0883295 on 4 procs for 1 steps with 986 atoms

99.9% CPU use with 4 MPI tasks x no OpenMP threads
fix_modify k1 demflag 1
fix_modify d1 demflag 1
fix_modify vf1 demflag 1
timestep 0.1
run 2000 pre no post no
Step CPU Atoms c_myHeight c_myNtype[1] c_myNtype[2] c_myNtype[3] c_myMass[1] c_myMass[2] c_myMass[3] 
   22012            0      986 4.8583014e-05            0          586          400 4.7433318e-12 2.9918775e-12 1.7514544e-12 
   22022 0.0016820431      986 4.9049489e-05            0          586          400 4.7433318e-12 2.9918775e-12 1.7514544e-12 
   23023   0.10025811      986 5.0531805e-05            0          586          400 4.7433318e-12 2.9918775e-12 1.7514544e-12 
   24012   0.16571617      986 5.0717368e-05            0          586          400 4.7433318e-12 2.9918775e-12 1.7514544e-12 
Loop time of 0.165737 on 4 procs for 2000 steps with 986 atoms

99.9% CPU use with 4 MPI tasks x no OpenMP threads
timestep 1440
fix_modify k1 demflag 0
fix_modify d1 demflag 0
fix_modify vf1 demflag 0
Step CPU Atoms c_myHeight c_myNtype[1] c_myNtype[2] c_myNtype[3] c_myMass[1] c_myMass[2] c_myMass[3] 
   24012            0      986 5.0717368e-05            0          586          400 4.7433318e-12 2.9918775e-12 1.7514544e-12 
number of iterations: 2077 
maxz = 6.240660e-05 
S-sub-bulk = 2.176884e-02
S-sub-base = 2.188114e-02
S-nh4-bulk = 2.442487e-02
S-nh4-base = 2.434895e-02

   24013   0.12308884     1057  5.08927e-05            0          657          400 5.025588e-12 3.2199084e-12 1.8056796e-12 
Loop time of 0.123104 on 4 procs for 1 steps with 1057 atoms

100.0% CPU use with 4 MPI tasks x no OpenMP threads
fix_modify k1 demflag 1
fix_modify d1 demflag 1
fix_modify vf1 demflag 1
timestep 0.1
run 2000 pre no post no
Step CPU Atoms c_myHeight c_myNtype[1] c_myNtype[2] c_myNtype[3] c_myMass[1] c_myMass[2] c_myMass[3] 
   24013            0     1057  5.08927e-05            0          657          400 5.025588e-12 3.2199084e-12 1.8056796e-12 
   24024  0.001928091     1057 5.1433503e-05            0          657          400 5.025588e-12 3.2199084e-12 1.8056796e-12 
   25025   0.11812115     1057 5.3190566e-05            0          657          400 5.025588e-12 3.2199084e-12 1.8056796e-12 
   26013   0.19954014     1057 5.3619688e-05            0          657          400 5.025588e-12 3.2199084e-12 1.8056796e-12 
Loop time of 0.199563 on 4 procs for 2000 steps with 1057 atoms

100.0% CPU use with 4 MPI tasks x no OpenMP threads
timestep 1440
fix_modify k1 demflag 0
fix_modify d1 demflag 0
fix_modify vf1 demflag 0
Step CPU Atoms c_myHeight c_myNtype[1] c_myNtype[2] c_myNtype[3] c_myMass[1] c_myMass[2] c_myMass[3] 
   26013            0     1057 5.3619688e-05            0          657          400 5.025588e-12 3.2199084e-12 1.8056796e-12 
number of iterations: 1996 
maxz = 6.790354e-05 
S-sub-bulk = 2.115253e-02
S-sub-base = 2.125430e-02
S-nh4-bulk = 2.423607e-02
S-nh4-base = 2.415265e-02

   26014   0.11886406     1134 5.3881255e-05            0          734          400 5.3257027e-12 3.4641385e-12 1.8615642e-12 
Loop time of 0.118881 on 4 procs for 1 steps with 1134 atoms

100.0% CPU use with 4 MPI tasks x no OpenMP threads
fix_modify k1 demflag 1
fix_modify d1 demflag 1
fix_modify vf1 demflag 1
timestep 0.1
run 2000 pre no post no
Step CPU Atoms c_myHeight c_myNtype[1] c_myNtype[2] c_myNtype[3] c_myMass[1] c_myMass[2] c_myMass[3] 
   26014            0     1134 5.3881255e-05            0          734          400 5.3257027e-12 3.4641385e-12 1.8615642e-12 
   26026 0.0024700165     1134 5.4244197e-05            0          734          400 5.3257027e-12 3.4641385e-12 1.8615642e-12 
   27027   0.12260103     1134 5.6093703e-05            0          734          400 5.3257027e-12 3.4641385e-12 1.8615642e-12 
   28014   0.20725703     1134 5.6620959e-05            0          734          400 5.3257027e-12 3.4641385e-12 1.8615642e-12 
Loop time of 0.207278 on 4 procs for 2000 steps with 1134 atoms

100.0% CPU use with 4 MPI tasks x no OpenMP threads
timestep 1440
fix_modify k1 demflag 0
fix_modify d1 demflag 0
fix_modify vf1 demflag 0
Step CPU Atoms c_myHeight c_myNtype[1] c_myNtype[2] c_myNtype[3] c_myMass[1] c_myMass[2] c_myMass[3] 
   28014            0     1134 5.6620959e-05            0          734          400 5.3257027e-12 3.4641385e-12 1.8615642e-12 
number of iterations: 2075 
maxz = 6.964973e-05 
S-sub-bulk = 2.050163e-02
S-sub-base = 2.060522e-02
S-nh4-bulk = 2.404601e-02
S-nh4-base = 2.396136e-02

   28015   0.13395286     1193 5.6987013e-05            0          793          400 5.6447096e-12 3.7255412e-12 1.9191683e-12 
Loop time of 0.133968 on 4 procs for 1 steps with 1193 atoms

100.0% CPU use with 4 MPI tasks x no OpenMP threads
fix_modify k1 demflag 1
fix_modify d1 demflag 1
fix_modify vf1 demflag 1
timestep 0.1
run 2000 pre no post no
Step CPU Atoms c_myHeight c_myNtype[1] c_myNtype[2] c_myNtype[3] c_myMass[1] c_myMass[2] c_myMass[3] 
   28015            0     1193 5.6987013e-05            0          793          400 5.6447096e-12 3.7255412e-12 1.9191683e-12 
   28028 0.0029430389     1193 5.7643652e-05            0          793          400 5.6447096e-12 3.7255412e-12 1.9191683e-12 
   29029   0.13488197     1193 5.9274044e-05            0          793          400 5.6447096e-12 3.7255412e-12 1.9191683e-12 
   30015   0.23250699     1193 5.9725787e-05            0          793          400 5.6447096e-12 3.7255412e-12 1.9191683e-12 
Loop time of 0.232529 on 4 procs for 2000 steps with 1193 atoms

100.0% CPU use with 4 MPI tasks x no OpenMP threads
timestep 1440
fix_modify k1 demflag 0
fix_modify d1 demflag 0
fix_modify vf1 demflag 0
Step CPU Atoms c_myHeight c_myNtype[1] c_myNtype[2] c_myNtype[3] c_myMass[1] c_myMass[2] c_myMass[3] 
   30015            0     1193 5.9725787e-05            0          793          400 5.6447096e-12 3.7255412e-12 1.9191683e-12 
number of iterations: 2183 
maxz = 7.217996e-05 
S-sub-bulk = 1.981435e-02
S-sub-base = 1.991455e-02
S-nh4-bulk = 2.385353e-02
S-nh4-base = 2.376720e-02

   30016   0.14065695     1200 5.9887883e-05            0          800          400 5.9835859e-12 4.0050435e-12 1.9785424e-12 
Loop time of 0.140674 on 4 procs for 1 steps with 1200 atoms

100.0% CPU use with 4 MPI tasks x no OpenMP threads
fix_modify k1 demflag 1
fix_modify d1 demflag 1
fix_modify vf1 demflag 1
timestep 0.1
run 2000 pre no post no
Step CPU Atoms c_myHeight c_myNtype[1] c_myNtype[2] c_myNtype[3] c_myMass[1] c_myMass[2] c_myMass[3] 
   30016            0     1200 5.9887883e-05            0          800          400 5.9835859e-12 4.0050435e-12 1.9785424e-12 
   30030 0.0031819344     1200 6.0318652e-05            0          800          400 5.9835859e-12 4.0050435e-12 1.9785424e-12 
   31031   0.13444805     1200 6.1772688e-05            0          800          400 5.9835859e-12 4.0050435e-12 1.9785424e-12 
   32016    0.2437489     1200 6.2303279e-05            0          800          400 5.9835859e-12 4.0050435e-12 1.9785424e-12 
Loop time of 0.24377 on 4 procs for 2000 steps with 1200 atoms

99.9% CPU use with 4 MPI tasks x no OpenMP threads
timestep 1440
fix_modify k1 demflag 0
fix_modify d1 demflag 0
fix_modify vf1 demflag 0
Step CPU Atoms c_myHeight c_myNtype[1] c_myNtype[2] c_myNtype[3] c_myMass[1] c_myMass[2] c_myMass[3] 
   32016            0     1200 6.2303279e-05            0          800          400 5.9835859e-12 4.0050435e-12 1.9785424e-12 
number of iterations: 2921 
maxz = 7.361282e-05 
S-sub-bulk = 1.909734e-02
S-sub-base = 1.902309e-02
S-nh4-bulk = 2.366148e-02
S-nh4-base = 2.350436e-02

   32017   0.18859386     1202 6.2418764e-05            0          802          400 6.3424404e-12 4.302831e-12 2.0396094e-12 
Loop time of 0.188611 on 4 procs for 1 steps with 1202 atoms

100.0% CPU use with 4 MPI tasks x no OpenMP threads
fix_modify k1 demflag 1
fix_modify d1 demflag 1
fix_modify vf1 demflag 1
timestep 0.1
run 2000 pre no post no
Step CPU Atoms c_myHeight c_myNtype[1] c_myNtype[2] c_myNtype[3] c_myMass[1] c_myMass[2] c_myMass[3] 
   32017            0     1202 6.2418764e-05            0          802          400 6.3424404e-12 4.302831e-12 2.0396094e-12 
   32032 0.0033950806     1202 6.2930178e-05            0          802          400 6.3424404e-12 4.302831e-12 2.0396094e-12 
   33033   0.13865614     1202 6.4106519e-05            0          802          400 6.3424404e-12 4.302831e-12 2.0396094e-12 
   34017   0.26030397     1202 6.4865729e-05            0          802          400 6.3424404e-12 4.302831e-12 2.0396094e-12 
Loop time of 0.260325 on 4 procs for 2000 steps with 1202 atoms

100.0% CPU use with 4 MPI tasks x no OpenMP threads
timestep 1440
fix_modify k1 demflag 0
fix_modify d1 demflag 0
fix_modify vf1 demflag 0
Step CPU Atoms c_myHeight c_myNtype[1] c_myNtype[2] c_myNtype[3] c_myMass[1] c_myMass[2] c_myMass[3] 
   34017            0     1202 6.4865729e-05            0          802          400 6.3424404e-12 4.302831e-12 2.0396094e-12 
number of iterations: 2759 
maxz = 7.611239e-05 
S-sub-bulk = 1.834238e-02
S-sub-base = 1.824162e-02
S-nh4-bulk = 2.346481e-02
S-nh4-base = 2.330549e-02

   34018   0.17193103     1225 6.487688e-05            0          825          400 6.7228319e-12 4.6202952e-12 2.1025367e-12 
Loop time of 0.171947 on 4 procs for 1 steps with 1225 atoms

100.0% CPU use with 4 MPI tasks x no OpenMP threads
fix_modify k1 demflag 1
fix_modify d1 demflag 1
fix_modify vf1 demflag 1
timestep 0.1
run 2000 pre no post no
Step CPU Atoms c_myHeight c_myNtype[1] c_myNtype[2] c_myNtype[3] c_myMass[1] c_myMass[2] c_myMass[3] 
   34018            0     1225 6.487688e-05            0          825          400 6.7228319e-12 4.6202952e-12 2.1025367e-12 
   34034 0.0040521622     1225 6.5381963e-05            0          825          400 6.7228319e-12 4.6202952e-12 2.1025367e-12 
   35035   0.15227008     1225 6.7264374e-05            0          825          400 6.7228319e-12 4.6202952e-12 2.1025367e-12 
   36018     0.276613     1225 6.8029324e-05            0          825          400 6.7228319e-12 4.6202952e-12 2.1025367e-12 
Loop time of 0.276634 on 4 procs for 2000 steps with 1225 atoms

100.0% CPU use with 4 MPI tasks x no OpenMP threads
timestep 1440
fix_modify k1 demflag 0
fix_modify d1 demflag 0
fix_modify vf1 demflag 0
Step CPU Atoms c_myHeight c_myNtype[1] c_myNtype[2] c_myNtype[3] c_myMass[1] c_myMass[2] c_myMass[3] 
   36018            0     1225 6.8029324e-05            0          825          400 6.7228319e-12 4.6202952e-12 2.1025367e-12 
number of iterations: 2890 
maxz = 7.955994e-05 
S-sub-bulk = 1.754920e-02
S-sub-base = 1.742923e-02
S-nh4-bulk = 2.326276e-02
S-nh4-base = 2.310635e-02

   36019   0.18129396     1281 6.8277806e-05            0          881          400 7.1256754e-12 4.9582843e-12 2.167391e-12 
Loop time of 0.18131 on 4 procs for 1 steps with 1281 atoms

100.0% CPU use with 4 MPI tasks x no OpenMP threads
fix_modify k1 demflag 1
fix_modify d1 demflag 1
fix_modify vf1 demflag 1
timestep 0.1
run 2000 pre no post no
Step CPU Atoms c_myHeight c_myNtype[1] c_myNtype[2] c_myNtype[3] c_myMass[1] c_myMass[2] c_myMass[3] 
   36019            0     1281 6.8277806e-05            0          881          400 7.1256754e-12 4.9582843e-12 2.167391e-12 
   36036 0.0038719177     1281 6.9197222e-05            0          881          400 7.1256754e-12 4.9582843e-12 2.167391e-12 
   37037   0.16432405     1281 7.129063e-05            0          881          400 7.1256754e-12 4.9582843e-12 2.167391e-12 
   38019   0.30520391     1281 7.1597106e-05            0          881          400 7.1256754e-12 4.9582843e-12 2.167391e-12 
Loop time of 0.305226 on 4 procs for 2000 steps with 1281 atoms

100.0% CPU use with 4 MPI tasks x no OpenMP threads
timestep 1440
fix_modify k1 demflag 0
fix_modify d1 demflag 0
fix_modify vf1 demflag 0
Step CPU Atoms c_myHeight c_myNtype[1] c_myNtype[2] c_myNtype[3] c_myMass[1] c_myMass[2] c_myMass[3] 
   38019            0     1281 7.1597106e-05            0          881          400 7.1256754e-12 4.9582843e-12 2.167391e-12 
number of iterations: 3037 
maxz = 8.485082e-05 
S-sub-bulk = 1.671848e-02
S-sub-base = 1.658723e-02
S-nh4-bulk = 2.305486e-02
S-nh4-base = 2.290205e-02

   38020   0.22706914     1365 7.1982121e-05            0          965          400 7.5517971e-12 5.3175618e-12 2.2342353e-12 
Loop time of 0.227085 on 4 procs for 1 steps with 1365 atoms

100.0% CPU use with 4 MPI tasks x no OpenMP threads
fix_modify k1 demflag 1
fix_modify d1 demflag 1
fix_modify vf1 demflag 1
timestep 0.1
run 2000 pre no post no
Step CPU Atoms c_myHeight c_myNtype[1] c_myNtype[2] c_myNtype[3] c_myMass[1] c_myMass[2] c_myMass[3] 
   38020            0     1365 7.1982121e-05            0          965          400 7.5517971e-12 5.3175618e-12 2.2342353e-12 
   38038 0.0055029392     1365 7.2718481e-05            0          965          400 7.5517971e-12 5.3175618e-12 2.2342353e-12 
   39039   0.18161011     1365 7.4768126e-05            0          965          400 7.5517971e-12 5.3175618e-12 2.2342353e-12 
   40020   0.32867908     1365 7.5339553e-05            0          965          400 7.5517971e-12 5.3175618e-12 2.2342353e-12 
Loop time of 0.3287 on 4 procs for 2000 steps with 1365 atoms

100.0% CPU use with 4 MPI tasks x no OpenMP threads
timestep 1440
fix_modify k1 demflag 0
fix_modify d1 demflag 0
fix_modify vf1 demflag 0
Step CPU Atoms c_myHeight c_myNtype[1] c_myNtype[2] c_myNtype[3] c_myMass[1] c_myMass[2] c_myMass[3] 
   40020            0     1365 7.5339553e-05            0          965          400 7.5517971e-12 5.3175618e-12 2.2342353e-12 
number of iterations: 4064 
maxz = 8.902544e-05 
S-sub-bulk = 1.586929e-02
S-sub-base = 1.548439e-02
S-nh4-bulk = 2.284595e-02
S-nh4-base = 2.261547e-02

   40021    0.3173821     1463 7.5692225e-05            0         1063          400 8.0001123e-12 5.6971554e-12 2.3029569e-12 
Loop time of 0.317399 on 4 procs for 1 steps with 1463 atoms

99.9% CPU use with 4 MPI tasks x no OpenMP threads
fix_modify k1 demflag 1
fix_modify d1 demflag 1
fix_modify vf1 demflag 1
timestep 0.1
run 2000 pre no post no
Step CPU Atoms c_myHeight c_myNtype[1] c_myNtype[2] c_myNtype[3] c_myMass[1] c_myMass[2] c_myMass[3] 
   40021            0     1463 7.5692225e-05            0         1063          400 8.0001123e-12 5.6971554e-12 2.3029569e-12 
   40040  0.006592989     1463 7.6589556e-05            0         1063          400 8.0001123e-12 5.6971554e-12 2.3029569e-12 
   41041   0.19925809     1463 7.9184931e-05            0         1063          400 8.0001123e-12 5.6971554e-12 2.3029569e-12 
   42021   0.35377908     1463 7.9612873e-05            0         1063          400 8.0001123e-12 5.6971554e-12 2.3029569e-12 
Loop time of 0.353798 on 4 procs for 2000 steps with 1463 atoms

99.2% CPU use with 4 MPI tasks x no OpenMP threads
timestep 1440
fix_modify k1 demflag 0
fix_modify d1 demflag 0
fix_modify vf1 demflag 0
Step CPU Atoms c_myHeight c_myNtype[1] c_myNtype[2] c_myNtype[3] c_myMass[1] c_myMass[2] c_myMass[3] 
   42021            0     1463 7.9612873e-05            0         1063          400 8.0001123e-12 5.6971554e-12 2.3029569e-12 
number of iterations: 3744 
maxz = 9.299894e-05 
S-sub-bulk = 1.498714e-02
S-sub-base = 1.458410e-02
S-nh4-bulk = 2.262959e-02
S-nh4-base = 2.240804e-02

   42022   0.26293898     1575 7.9853757e-05            0         1175          400 8.4725254e-12 6.0987426e-12 2.3737828e-12 
Loop time of 0.262956 on 4 procs for 1 steps with 1575 atoms

99.8% CPU use with 4 MPI tasks x no OpenMP threads
fix_modify k1 demflag 1
fix_modify d1 demflag 1
fix_modify vf1 demflag 1
timestep 0.1
run 2000 pre no post no
Step CPU Atoms c_myHeight c_myNtype[1] c_myNtype[2] c_myNtype[3] c_myMass[1] c_myMass[2] c_myMass[3] 
   42022            0     1575 7.9853757e-05            0         1175          400 8.4725254e-12 6.0987426e-12 2.3737828e-12 
   42042 0.0061199665     1575 8.0842236e-05            0         1175          400 8.4725254e-12 6.0987426e-12 2.3737828e-12 
   43043   0.21008611     1575 8.3058362e-05            0         1175          400 8.4725254e-12 6.0987426e-12 2.3737828e-12 
   44022   0.38236809     1575 8.3408128e-05            0         1175          400 8.4725254e-12 6.0987426e-12 2.3737828e-12 
Loop time of 0.382387 on 4 procs for 2000 steps with 1575 atoms

99.7% CPU use with 4 MPI tasks x no OpenMP threads
timestep 1440
fix_modify k1 demflag 0
fix_modify d1 demflag 0
fix_modify vf1 demflag 0
Step CPU Atoms c_myHeight c_myNtype[1] c_myNtype[2] c_myNtype[3] c_myMass[1] c_myMass[2] c_myMass[3] 
   44022            0     1575 8.3408128e-05            0         1175          400 8.4725254e-12 6.0987426e-12 2.3737828e-12 
number of iterations: 5000 
maxz = 9.786705e-05 
S-sub-bulk = 1.410561e-02
S-sub-base = 1.337565e-02
S-nh4-bulk = 2.241227e-02
S-nh4-base = 2.210461e-02

   44023    0.3659091     1727 8.3876509e-05            0         1319          408 8.9664279e-12 6.5198699e-12 2.446558e-12 
Loop time of 0.365926 on 4 procs for 1 steps with 1727 atoms

99.8% CPU use with 4 MPI tasks x no OpenMP threads
fix_modify k1 demflag 1
fix_modify d1 demflag 1
fix_modify vf1 demflag 1
timestep 0.1
run 2000 pre no post no
Step CPU Atoms c_myHeight c_myNtype[1] c_myNtype[2] c_myNtype[3] c_myMass[1] c_myMass[2] c_myMass[3] 
   44023            0     1727 8.3876509e-05            0         1319          408 8.9664279e-12 6.5198699e-12 2.446558e-12 
   44044  0.006909132     1727 8.4968904e-05            0         1319          408 8.9664279e-12 6.5198699e-12 2.446558e-12 
   45045   0.24088597     1727 8.7909412e-05            0         1319          408 8.9664279e-12 6.5198699e-12 2.446558e-12 
   46023   0.42684197     1727 8.8568108e-05            0         1319          408 8.9664279e-12 6.5198699e-12 2.446558e-12 
Loop time of 0.426861 on 4 procs for 2000 steps with 1727 atoms

99.8% CPU use with 4 MPI tasks x no OpenMP threads
timestep 1440
fix_modify k1 demflag 0
fix_modify d1 demflag 0
fix_modify vf1 demflag 0
Step CPU Atoms c_myHeight c_myNtype[1] c_myNtype[2] c_myNtype[3] c_myMass[1] c_myMass[2] c_myMass[3] 
   46023            0     1727 8.8568108e-05            0         1319          408 8.9664279e-12 6.5198699e-12 2.446558e-12 
number of iterations: 4587 
maxz = 1.019244e-04 
S-sub-bulk = 1.320167e-02
S-sub-base = 1.243057e-02
S-nh4-bulk = 2.218609e-02
S-nh4-base = 2.188972e-02

   46024   0.34537983     1885 8.8775267e-05            0         1432          453 9.4840964e-12 6.9625375e-12 2.521559e-12 
Loop time of 0.345397 on 4 procs for 1 steps with 1885 atoms

99.8% CPU use with 4 MPI tasks x no OpenMP threads
fix_modify k1 demflag 1
fix_modify d1 demflag 1
fix_modify vf1 demflag 1
timestep 0.1
run 2000 pre no post no
Step CPU Atoms c_myHeight c_myNtype[1] c_myNtype[2] c_myNtype[3] c_myMass[1] c_myMass[2] c_myMass[3] 
   46024            0     1885 8.8775267e-05            0         1432          453 9.4840964e-12 6.9625375e-12 2.521559e-12 
   46046 0.0077869892     1885 8.9941327e-05            0         1432          453 9.4840964e-12 6.9625375e-12 2.521559e-12 
   47047   0.26287198     1885 9.2517397e-05            0         1432          453 9.4840964e-12 6.9625375e-12 2.521559e-12 
   48024   0.47494698     1885 9.2925734e-05            0         1432          453 9.4840964e-12 6.9625375e-12 2.521559e-12 
Loop time of 0.474967 on 4 procs for 2000 steps with 1885 atoms

99.8% CPU use with 4 MPI tasks x no OpenMP threads
timestep 1440
fix_modify k1 demflag 0
fix_modify d1 demflag 0
fix_modify vf1 demflag 0
Step CPU Atoms c_myHeight c_myNtype[1] c_myNtype[2] c_myNtype[3] c_myMass[1] c_myMass[2] c_myMass[3] 
   48024            0     1885 9.2925734e-05            0         1432          453 9.4840964e-12 6.9625375e-12 2.521559e-12 
number of iterations: 5000 
maxz = 1.061490e-04 
S-sub-bulk = 1.231701e-02
S-sub-base = 1.131179e-02
S-nh4-bulk = 2.195873e-02
S-nh4-base = 2.159356e-02

   48025   0.40268111     2010 9.3229029e-05            0         1514          496 1.0021874e-11 7.4232711e-12 2.5986032e-12 
Loop time of 0.402696 on 4 procs for 1 steps with 2010 atoms

99.9% CPU use with 4 MPI tasks x no OpenMP threads
fix_modify k1 demflag 1
fix_modify d1 demflag 1
fix_modify vf1 demflag 1
timestep 0.1
run 2000 pre no post no
Step CPU Atoms c_myHeight c_myNtype[1] c_myNtype[2] c_myNtype[3] c_myMass[1] c_myMass[2] c_myMass[3] 
   48025            0     2010 9.3229029e-05            0         1514          496 1.0021874e-11 7.4232711e-12 2.5986032e-12 
   48048 0.0086410046     2010 9.427767e-05            0         1514          496 1.0021874e-11 7.4232711e-12 2.5986032e-12 
   49049   0.28035283     2010 9.6231491e-05            0         1514          496 1.0021874e-11 7.4232711e-12 2.5986032e-12 
   50025   0.51861191     2010 9.6952407e-05            0         1514          496 1.0021874e-11 7.4232711e-12 2.5986032e-12 
Loop time of 0.518632 on 4 procs for 2000 steps with 2010 atoms

99.8% CPU use with 4 MPI tasks x no OpenMP threads
timestep 1440
fix_modify k1 demflag 0
fix_modify d1 demflag 0
fix_modify vf1 demflag 0
Step CPU Atoms c_myHeight c_myNtype[1] c_myNtype[2] c_myNtype[3] c_myMass[1] c_myMass[2] c_myMass[3] 
   50025            0     2010 9.6952407e-05            0         1514          496 1.0021874e-11 7.4232711e-12 2.5986032e-12 
number of iterations: 5000 
maxz = 1.119388e-04 
S-sub-bulk = 1.143777e-02
S-sub-base = 1.030902e-02
S-nh4-bulk = 2.172246e-02
S-nh4-base = 2.135297e-02

   50026   0.40307498     2086 9.7379504e-05            0         1567          519 1.0580705e-11 7.9027417e-12 2.6779628e-12 
Loop time of 0.40309 on 4 procs for 1 steps with 2086 atoms

99.8% CPU use with 4 MPI tasks x no OpenMP threads
fix_modify k1 demflag 1
fix_modify d1 demflag 1
fix_modify vf1 demflag 1
timestep 0.1
run 2000 pre no post no
Step CPU Atoms c_myHeight c_myNtype[1] c_myNtype[2] c_myNtype[3] c_myMass[1] c_myMass[2] c_myMass[3] 
   50026            0     2086 9.7379504e-05            0         1567          519 1.0580705e-11 7.9027417e-12 2.6779628e-12 
   50050 0.0098958015     2086 9.8259928e-05            0         1567          519 1.0580705e-11 7.9027417e-12 2.6779628e-12 
   51051   0.29777479     2086 0.00010015258            0         1567          519 1.0580705e-11 7.9027417e-12 2.6779628e-12 
   52026   0.52943993     2086 0.00010036928            0         1567          519 1.0580705e-11 7.9027417e-12 2.6779628e-12 
Loop time of 0.529462 on 4 procs for 2000 steps with 2086 atoms

99.8% CPU use with 4 MPI tasks x no OpenMP threads
timestep 1440
fix_modify k1 demflag 0
fix_modify d1 demflag 0
fix_modify vf1 demflag 0
Step CPU Atoms c_myHeight c_myNtype[1] c_myNtype[2] c_myNtype[3] c_myMass[1] c_myMass[2] c_myMass[3] 
   52026            0     2086 0.00010036928            0         1567          519 1.0580705e-11 7.9027417e-12 2.6779628e-12 
number of iterations: 5000 
maxz = 1.141412e-04 
S-sub-bulk = 1.061463e-02
S-sub-base = 9.237518e-03
S-nh4-bulk = 2.148634e-02
S-nh4-base = 2.104897e-02

   52027    0.4290061     2180 0.0001005489            0         1624          556 1.1155367e-11 8.3959581e-12 2.7594087e-12 
Loop time of 0.429021 on 4 procs for 1 steps with 2180 atoms

99.9% CPU use with 4 MPI tasks x no OpenMP threads
fix_modify k1 demflag 1
fix_modify d1 demflag 1
fix_modify vf1 demflag 1
timestep 0.1
run 2000 pre no post no
Step CPU Atoms c_myHeight c_myNtype[1] c_myNtype[2] c_myNtype[3] c_myMass[1] c_myMass[2] c_myMass[3] 
   52027            0     2180 0.0001005489            0         1624          556 1.1155367e-11 8.3959581e-12 2.7594087e-12 
   52052  0.010742188     2180 0.00010170712            0         1624          556 1.1155367e-11 8.3959581e-12 2.7594087e-12 
   53053     0.333143     2180 0.00010475342            0         1624          556 1.1155367e-11 8.3959581e-12 2.7594087e-12 
   54027     0.589221     2180 0.00010505573            0         1624          556 1.1155367e-11 8.3959581e-12 2.7594087e-12 
Loop time of 0.589242 on 4 procs for 2000 steps with 2180 atoms

99.6% CPU use with 4 MPI tasks x no OpenMP threads
timestep 1440
fix_modify k1 demflag 0
fix_modify d1 demflag 0
fix_modify vf1 demflag 0
Step CPU Atoms c_myHeight c_myNtype[1] c_myNtype[2] c_myNtype[3] c_myMass[1] c_myMass[2] c_myMass[3] 
   54027            0     2180 0.00010505573            0         1624          556 1.1155367e-11 8.3959581e-12 2.7594087e-12 
number of iterations: 5000 
maxz = 1.175031e-04 
S-sub-bulk = 9.823593e-03
S-sub-base = 8.291376e-03
S-nh4-bulk = 2.124007e-02
S-nh4-base = 2.079676e-02

   54028   0.43278503     2271 0.00010524365            0         1691          580 1.1746923e-11 8.9036347e-12 2.8432887e-12 
Loop time of 0.432799 on 4 procs for 1 steps with 2271 atoms

99.8% CPU use with 4 MPI tasks x no OpenMP threads
fix_modify k1 demflag 1
fix_modify d1 demflag 1
fix_modify vf1 demflag 1
timestep 0.1
run 2000 pre no post no
Step CPU Atoms c_myHeight c_myNtype[1] c_myNtype[2] c_myNtype[3] c_myMass[1] c_myMass[2] c_myMass[3] 
   54028            0     2271 0.00010524365            0         1691          580 1.1746923e-11 8.9036347e-12 2.8432887e-12 
   54054  0.011728048     2271 0.00010638005            0         1691          580 1.1746923e-11 8.9036347e-12 2.8432887e-12 
   55055   0.35343289     2271 0.00010942443            0         1691          580 1.1746923e-11 8.9036347e-12 2.8432887e-12 
   56028   0.63235998     2271 0.00010983299            0         1691          580 1.1746923e-11 8.9036347e-12 2.8432887e-12 
Loop time of 0.632392 on 4 procs for 2000 steps with 2271 atoms

99.8% CPU use with 4 MPI tasks x no OpenMP threads
timestep 1440
fix_modify k1 demflag 0
fix_modify d1 demflag 0
fix_modify vf1 demflag 0
Step CPU Atoms c_myHeight c_myNtype[1] c_myNtype[2] c_myNtype[3] c_myMass[1] c_myMass[2] c_myMass[3] 
   56028            0     2271 0.00010983299            0         1691          580 1.1746923e-11 8.9036347e-12 2.8432887e-12 
number of iterations: 5000 
maxz = 1.219609e-04 
S-sub-bulk = 9.072690e-03
S-sub-base = 7.443224e-03
S-nh4-bulk = 2.098316e-02
S-nh4-base = 2.055012e-02

   56029   0.44312096     2381 0.00011010667            0         1771          610 1.2353814e-11 9.4241039e-12 2.9297098e-12 
Loop time of 0.443137 on 4 procs for 1 steps with 2381 atoms

99.7% CPU use with 4 MPI tasks x no OpenMP threads
fix_modify k1 demflag 1
fix_modify d1 demflag 1
fix_modify vf1 demflag 1
timestep 0.1
run 2000 pre no post no
Step CPU Atoms c_myHeight c_myNtype[1] c_myNtype[2] c_myNtype[3] c_myMass[1] c_myMass[2] c_myMass[3] 
   56029            0     2381 0.00011010667            0         1771          610 1.2353814e-11 9.4241039e-12 2.9297098e-12 
   56056  0.013148069     2381 0.00011117822            0         1771          610 1.2353814e-11 9.4241039e-12 2.9297098e-12 
   57057   0.36178088     2381 0.00011400209            0         1771          610 1.2353814e-11 9.4241039e-12 2.9297098e-12 
   58029   0.64983106     2381 0.00011446599            0         1771          610 1.2353814e-11 9.4241039e-12 2.9297098e-12 
Loop time of 0.649852 on 4 procs for 2000 steps with 2381 atoms

100.0% CPU use with 4 MPI tasks x no OpenMP threads
timestep 1440
fix_modify k1 demflag 0
fix_modify d1 demflag 0
fix_modify vf1 demflag 0
Step CPU Atoms c_myHeight c_myNtype[1] c_myNtype[2] c_myNtype[3] c_myMass[1] c_myMass[2] c_myMass[3] 
   58029            0     2381 0.00011446599            0         1771          610 1.2353814e-11 9.4241039e-12 2.9297098e-12 
number of iterations: 5000 
maxz = 1.259200e-04 
S-sub-bulk = 8.436579e-03
S-sub-base = 6.549374e-03
S-nh4-bulk = 2.072683e-02
S-nh4-base = 2.023704e-02

   58030   0.46466088     2486 0.00011453692            0         1859          627 1.2967676e-11 9.9492915e-12 3.0183846e-12 
Loop time of 0.464679 on 4 procs for 1 steps with 2486 atoms

100.0% CPU use with 4 MPI tasks x no OpenMP threads
fix_modify k1 demflag 1
fix_modify d1 demflag 1
fix_modify vf1 demflag 1
timestep 0.1
run 2000 pre no post no
Step CPU Atoms c_myHeight c_myNtype[1] c_myNtype[2] c_myNtype[3] c_myMass[1] c_myMass[2] c_myMass[3] 
   58030            0     2486 0.00011453692            0         1859          627 1.2967676e-11 9.9492915e-12 3.0183846e-12 
   58058  0.013999939     2486 0.00011576702            0         1859          627 1.2967676e-11 9.9492915e-12 3.0183846e-12 
   59059   0.38457799     2486 0.0001188753            0         1859          627 1.2967676e-11 9.9492915e-12 3.0183846e-12 
   60030   0.68166709     2486 0.00011969983            0         1859          627 1.2967676e-11 9.9492915e-12 3.0183846e-12 
Loop time of 0.681688 on 4 procs for 2000 steps with 2486 atoms

100.0% CPU use with 4 MPI tasks x no OpenMP threads
timestep 1440
fix_modify k1 demflag 0
fix_modify d1 demflag 0
fix_modify vf1 demflag 0
Step CPU Atoms c_myHeight c_myNtype[1] c_myNtype[2] c_myNtype[3] c_myMass[1] c_myMass[2] c_myMass[3] 
   60030            0     2486 0.00011969983            0         1859          627 1.2967676e-11 9.9492915e-12 3.0183846e-12 
number of iterations: 5000 
maxz = 1.314482e-04 
S-sub-bulk = 7.862882e-03
S-sub-base = 5.794911e-03
S-nh4-bulk = 2.045939e-02
S-nh4-base = 1.996479e-02

   60031   0.47456098     2615 0.00011986604            0         1965          650 1.3590868e-11 1.0481164e-11 3.109704e-12 
Loop time of 0.474574 on 4 procs for 1 steps with 2615 atoms

100.0% CPU use with 4 MPI tasks x no OpenMP threads
fix_modify k1 demflag 1
fix_modify d1 demflag 1
fix_modify vf1 demflag 1
timestep 0.1
run 2000 pre no post no
Step CPU Atoms c_myHeight c_myNtype[1] c_myNtype[2] c_myNtype[3] c_myMass[1] c_myMass[2] c_myMass[3] 
   60031            0     2615 0.00011986604            0         1965          650 1.3590868e-11 1.0481164e-11 3.109704e-12 
   60060  0.015117884     2615 0.00012120284            0         1965          650 1.3590868e-11 1.0481164e-11 3.109704e-12 
   61061    0.3995049     2615 0.0001240807            0         1965          650 1.3590868e-11 1.0481164e-11 3.109704e-12 
   62031   0.71020103     2615 0.00012441711            0         1965          650 1.3590868e-11 1.0481164e-11 3.109704e-12 
Loop time of 0.710222 on 4 procs for 2000 steps with 2615 atoms

100.0% CPU use with 4 MPI tasks x no OpenMP threads
timestep 1440
fix_modify k1 demflag 0
fix_modify d1 demflag 0
fix_modify vf1 demflag 0
Step CPU Atoms c_myHeight c_myNtype[1] c_myNtype[2] c_myNtype[3] c_myMass[1] c_myMass[2] c_myMass[3] 
   62031            0     2615 0.00012441711            0         1965          650 1.3590868e-11 1.0481164e-11 3.109704e-12 
number of iterations: 5000 
maxz = 1.374470e-04 
S-sub-bulk = 7.436088e-03
S-sub-base = 5.059133e-03
S-nh4-bulk = 2.019322e-02
S-nh4-base = 1.964246e-02

   62032   0.49983501     2789 0.00012470778            0         2108          681 1.4213556e-11 1.101021e-11 3.2033455e-12 
Loop time of 0.49985 on 4 procs for 1 steps with 2789 atoms

100.0% CPU use with 4 MPI tasks x no OpenMP threads
fix_modify k1 demflag 1
fix_modify d1 demflag 1
fix_modify vf1 demflag 1
timestep 0.1
run 2000 pre no post no
Step CPU Atoms c_myHeight c_myNtype[1] c_myNtype[2] c_myNtype[3] c_myMass[1] c_myMass[2] c_myMass[3] 
   62032            0     2789 0.00012470778            0         2108          681 1.4213556e-11 1.101021e-11 3.2033455e-12 
   62062  0.017061949     2789 0.00012603687            0         2108          681 1.4213556e-11 1.101021e-11 3.2033455e-12 
   63063   0.42826891     2789 0.0001290059            0         2108          681 1.4213556e-11 1.101021e-11 3.2033455e-12 
   64032   0.77570605     2789 0.00012968423            0         2108          681 1.4213556e-11 1.101021e-11 3.2033455e-12 
Loop time of 0.775727 on 4 procs for 2000 steps with 2789 atoms

100.0% CPU use with 4 MPI tasks x no OpenMP threads
timestep 1440
fix_modify k1 demflag 0
fix_modify d1 demflag 0
fix_modify vf1 demflag 0
Step CPU Atoms c_myHeight c_myNtype[1] c_myNtype[2] c_myNtype[3] c_myMass[1] c_myMass[2] c_myMass[3] 
   64032            0     2789 0.00012968423            0         2108          681 1.4213556e-11 1.101021e-11 3.2033455e-12 
number of iterations: 5000 
maxz = 1.426670e-04 
S-sub-bulk = 7.055069e-03
S-sub-base = 4.476644e-03
S-nh4-bulk = 1.991565e-02
S-nh4-base = 1.935309e-02

   64033   0.50328398     2959 0.00012983181            0         2256          703 1.4841962e-11 1.1542234e-11 3.2997274e-12 
Loop time of 0.503301 on 4 procs for 1 steps with 2959 atoms

100.0% CPU use with 4 MPI tasks x no OpenMP threads
fix_modify k1 demflag 1
fix_modify d1 demflag 1
fix_modify vf1 demflag 1
timestep 0.1
run 2000 pre no post no
Step CPU Atoms c_myHeight c_myNtype[1] c_myNtype[2] c_myNtype[3] c_myMass[1] c_myMass[2] c_myMass[3] 
   64033            0     2959 0.00012983181            0         2256          703 1.4841962e-11 1.1542234e-11 3.2997274e-12 
   64064  0.018671989     2959 0.0001312275            0         2256          703 1.4841962e-11 1.1542234e-11 3.2997274e-12 
   65065   0.47248483     2959 0.00013402417            0         2256          703 1.4841962e-11 1.1542234e-11 3.2997274e-12 
   66033   0.85484195     2959 0.00013476773            0         2256          703 1.4841962e-11 1.1542234e-11 3.2997274e-12 
Loop time of 0.854863 on 4 procs for 2000 steps with 2959 atoms

99.9% CPU use with 4 MPI tasks x no OpenMP threads
timestep 1440
fix_modify k1 demflag 0
fix_modify d1 demflag 0
fix_modify vf1 demflag 0
Step CPU Atoms c_myHeight c_myNtype[1] c_myNtype[2] c_myNtype[3] c_myMass[1] c_myMass[2] c_myMass[3] 
   66033            0     2959 0.00013476773            0         2256          703 1.4841962e-11 1.1542234e-11 3.2997274e-12 
number of iterations: 5000 
maxz = 1.473329e-04 
S-sub-bulk = 6.808006e-03
S-sub-base = 3.940071e-03
S-nh4-bulk = 1.963931e-02
S-nh4-base = 1.902538e-02

   66034   0.52972293     3145 0.00013489648            0         2408          737 1.5466347e-11 1.2067827e-11 3.3985206e-12 
Loop time of 0.529737 on 4 procs for 1 steps with 3145 atoms

100.0% CPU use with 4 MPI tasks x no OpenMP threads
fix_modify k1 demflag 1
fix_modify d1 demflag 1
fix_modify vf1 demflag 1
timestep 0.1
run 2000 pre no post no
Step CPU Atoms c_myHeight c_myNtype[1] c_myNtype[2] c_myNtype[3] c_myMass[1] c_myMass[2] c_myMass[3] 
   66034            0     3145 0.00013489648            0         2408          737 1.5466347e-11 1.2067827e-11 3.3985206e-12 
   66066  0.020084143     3145 0.00013624262            0         2408          737 1.5466347e-11 1.2067827e-11 3.3985206e-12 
   67067    0.5034411     3145 0.0001390384            0         2408          737 1.5466347e-11 1.2067827e-11 3.3985206e-12 
   68034    0.9045651     3145 0.00013962353            0         2408          737 1.5466347e-11 1.2067827e-11 3.3985206e-12 
Loop time of 0.904586 on 4 procs for 2000 steps with 3145 atoms

100.0% CPU use with 4 MPI tasks x no OpenMP threads
timestep 1440
fix_modify k1 demflag 0
fix_modify d1 demflag 0
fix_modify vf1 demflag 0
Step CPU Atoms c_myHeight c_myNtype[1] c_myNtype[2] c_myNtype[3] c_myMass[1] c_myMass[2] c_myMass[3] 
   68034            0     3145 0.00013962353            0         2408          737 1.5466347e-11 1.2067827e-11 3.3985206e-12 
number of iterations: 5000 
maxz = 1.505592e-04 
S-sub-bulk = 6.567127e-03
S-sub-base = 3.526417e-03
S-nh4-bulk = 1.935206e-02
S-nh4-base = 1.871958e-02

   68035   0.54047108     3310 0.0001397661            0         2542          768 1.6095784e-11 1.2595658e-11 3.5001256e-12 
Loop time of 0.540488 on 4 procs for 1 steps with 3310 atoms

100.0% CPU use with 4 MPI tasks x no OpenMP threads
fix_modify k1 demflag 1
fix_modify d1 demflag 1
fix_modify vf1 demflag 1
timestep 0.1
run 2000 pre no post no
Step CPU Atoms c_myHeight c_myNtype[1] c_myNtype[2] c_myNtype[3] c_myMass[1] c_myMass[2] c_myMass[3] 
   68035            0     3310 0.0001397661            0         2542          768 1.6095784e-11 1.2595658e-11 3.5001256e-12 
   68068  0.023127794     3310 0.00014107582            0         2542          768 1.6095784e-11 1.2595658e-11 3.5001256e-12 
   69069   0.53302598     3310 0.00014391919            0         2542          768 1.6095784e-11 1.2595658e-11 3.5001256e-12 
   70035   0.94587493     3310 0.00014455361            0         2542          768 1.6095784e-11 1.2595658e-11 3.5001256e-12 
Loop time of 0.945896 on 4 procs for 2000 steps with 3310 atoms

100.0% CPU use with 4 MPI tasks x no OpenMP threads
timestep 1440
fix_modify k1 demflag 0
fix_modify d1 demflag 0
fix_modify vf1 demflag 0
Step CPU Atoms c_myHeight c_myNtype[1] c_myNtype[2] c_myNtype[3] c_myMass[1] c_myMass[2] c_myMass[3] 
   70035            0     3310 0.00014455361            0         2542          768 1.6095784e-11 1.2595658e-11 3.5001256e-12 
number of iterations: 5000 
maxz = 1.571350e-04 
S-sub-bulk = 6.439019e-03
S-sub-base = 3.145111e-03
S-nh4-bulk = 1.906771e-02
S-nh4-base = 1.838308e-02

   70036   0.56707883     3464 0.00014472115            0         2673          791 1.6719764e-11 1.3115594e-11 3.6041697e-12 
Loop time of 0.567093 on 4 procs for 1 steps with 3464 atoms

100.0% CPU use with 4 MPI tasks x no OpenMP threads
fix_modify k1 demflag 1
fix_modify d1 demflag 1
fix_modify vf1 demflag 1
timestep 0.1
run 2000 pre no post no
Step CPU Atoms c_myHeight c_myNtype[1] c_myNtype[2] c_myNtype[3] c_myMass[1] c_myMass[2] c_myMass[3] 
   70036            0     3464 0.00014472115            0         2673          791 1.6719764e-11 1.3115594e-11 3.6041697e-12 
   70070  0.024743795     3464 0.00014612382            0         2673          791 1.6719764e-11 1.3115594e-11 3.6041697e-12 
   71071   0.55090785     3464 0.00014906817            0         2673          791 1.6719764e-11 1.3115594e-11 3.6041697e-12 
   72036   0.98678684     3464 0.00014997084            0         2673          791 1.6719764e-11 1.3115594e-11 3.6041697e-12 
Loop time of 0.986809 on 4 procs for 2000 steps with 3464 atoms

100.0% CPU use with 4 MPI tasks x no OpenMP threads
timestep 1440
fix_modify k1 demflag 0
fix_modify d1 demflag 0
fix_modify vf1 demflag 0
Step CPU Atoms c_myHeight c_myNtype[1] c_myNtype[2] c_myNtype[3] c_myMass[1] c_myMass[2] c_myMass[3] 
   72036            0     3464 0.00014997084            0         2673          791 1.6719764e-11 1.3115594e-11 3.6041697e-12 
number of iterations: 5000 
maxz = 1.617666e-04 
S-sub-bulk = 6.273489e-03
S-sub-base = 2.851808e-03
S-nh4-bulk = 1.877289e-02
S-nh4-base = 1.806423e-02

   72037   0.57017207     3589 0.00015015556            0         2789          800 1.7350036e-11 1.3638957e-11 3.711079e-12 
Loop time of 0.570186 on 4 procs for 1 steps with 3589 atoms

100.0% CPU use with 4 MPI tasks x no OpenMP threads
fix_modify k1 demflag 1
fix_modify d1 demflag 1
fix_modify vf1 demflag 1
timestep 0.1
run 2000 pre no post no
Step CPU Atoms c_myHeight c_myNtype[1] c_myNtype[2] c_myNtype[3] c_myMass[1] c_myMass[2] c_myMass[3] 
   72037            0     3589 0.00015015556            0         2789          800 1.7350036e-11 1.3638957e-11 3.711079e-12 
   72072  0.026257992     3589 0.00015125905            0         2789          800 1.7350036e-11 1.3638957e-11 3.711079e-12 
   73073   0.56884909     3589 0.00015345672            0         2789          800 1.7350036e-11 1.3638957e-11 3.711079e-12 
   74037    1.0171089     3589 0.00015406184            0         2789          800 1.7350036e-11 1.3638957e-11 3.711079e-12 
Loop time of 1.01713 on 4 procs for 2000 steps with 3589 atoms

99.9% CPU use with 4 MPI tasks x no OpenMP threads
timestep 1440
fix_modify k1 demflag 0
fix_modify d1 demflag 0
fix_modify vf1 demflag 0
Step CPU Atoms c_myHeight c_myNtype[1] c_myNtype[2] c_myNtype[3] c_myMass[1] c_myMass[2] c_myMass[3] 
   74037            0     3589 0.00015406184            0         2789          800 1.7350036e-11 1.3638957e-11 3.711079e-12 
number of iterations: 5000 
maxz = 1.660212e-04 
S-sub-bulk = 6.219372e-03
S-sub-base = 2.574782e-03
S-nh4-bulk = 1.848460e-02
S-nh4-base = 1.771626e-02

   74038   0.59473896     3704 0.00015428121            0         2904          800 1.7973105e-11 1.4152737e-11 3.820368e-12 
Loop time of 0.594753 on 4 procs for 1 steps with 3704 atoms

100.0% CPU use with 4 MPI tasks x no OpenMP threads
fix_modify k1 demflag 1
fix_modify d1 demflag 1
fix_modify vf1 demflag 1
timestep 0.1
run 2000 pre no post no
Step CPU Atoms c_myHeight c_myNtype[1] c_myNtype[2] c_myNtype[3] c_myMass[1] c_myMass[2] c_myMass[3] 
   74038            0     3704 0.00015428121            0         2904          800 1.7973105e-11 1.4152737e-11 3.820368e-12 
   74074  0.028635979     3704 0.0001553092            0         2904          800 1.7973105e-11 1.4152737e-11 3.820368e-12 
   75075   0.60852885     3704 0.00015795132            0         2904          800 1.7973105e-11 1.4152737e-11 3.820368e-12 
   76038    1.0549629     3704 0.00015823441            0         2904          800 1.7973105e-11 1.4152737e-11 3.820368e-12 
Loop time of 1.05498 on 4 procs for 2000 steps with 3704 atoms

100.0% CPU use with 4 MPI tasks x no OpenMP threads
timestep 1440
fix_modify k1 demflag 0
fix_modify d1 demflag 0
fix_modify vf1 demflag 0
Step CPU Atoms c_myHeight c_myNtype[1] c_myNtype[2] c_myNtype[3] c_myMass[1] c_myMass[2] c_myMass[3] 
   76038            0     3704 0.00015823441            0         2904          800 1.7973105e-11 1.4152737e-11 3.820368e-12 
number of iterations: 5000 
maxz = 1.702059e-04 
S-sub-bulk = 6.106817e-03
S-sub-base = 2.355740e-03
S-nh4-bulk = 1.818737e-02
S-nh4-base = 1.738470e-02

   76039   0.60150003     3771 0.00015824868            0         2971          800 1.8602652e-11 1.4670149e-11 3.9325027e-12 
Loop time of 0.601513 on 4 procs for 1 steps with 3771 atoms

100.0% CPU use with 4 MPI tasks x no OpenMP threads
fix_modify k1 demflag 1
fix_modify d1 demflag 1
fix_modify vf1 demflag 1
timestep 0.1
run 2000 pre no post no
Step CPU Atoms c_myHeight c_myNtype[1] c_myNtype[2] c_myNtype[3] c_myMass[1] c_myMass[2] c_myMass[3] 
   76039            0     3771 0.00015824868            0         2971          800 1.8602652e-11 1.4670149e-11 3.9325027e-12 
   76076  0.030261993     3771  0.000159214            0         2971          800 1.8602652e-11 1.4670149e-11 3.9325027e-12 
   77077   0.63600397     3771 0.00016149685            0         2971          800 1.8602652e-11 1.4670149e-11 3.9325027e-12 
   78039    1.1275601     3771 0.00016200186            0         2971          800 1.8602652e-11 1.4670149e-11 3.9325027e-12 
Loop time of 1.12758 on 4 procs for 2000 steps with 3771 atoms

99.6% CPU use with 4 MPI tasks x no OpenMP threads
timestep 1440
fix_modify k1 demflag 0
fix_modify d1 demflag 0
fix_modify vf1 demflag 0
Step CPU Atoms c_myHeight c_myNtype[1] c_myNtype[2] c_myNtype[3] c_myMass[1] c_myMass[2] c_myMass[3] 
   78039            0     3771 0.00016200186            0         2971          800 1.8602652e-11 1.4670149e-11 3.9325027e-12 
number of iterations: 5000 
maxz = 1.743388e-04 
S-sub-bulk = 6.102735e-03
S-sub-base = 2.147929e-03
S-nh4-bulk = 1.789961e-02
S-nh4-base = 1.703519e-02

   78040   0.63514686     3860 0.00016224128            0         3059          801 1.9223962e-11 1.5177027e-11 4.0469355e-12 
Loop time of 0.635161 on 4 procs for 1 steps with 3860 atoms

99.7% CPU use with 4 MPI tasks x no OpenMP threads
fix_modify k1 demflag 1
fix_modify d1 demflag 1
fix_modify vf1 demflag 1
timestep 0.1
run 2000 pre no post no
Step CPU Atoms c_myHeight c_myNtype[1] c_myNtype[2] c_myNtype[3] c_myMass[1] c_myMass[2] c_myMass[3] 
   78040            0     3860 0.00016224128            0         3059          801 1.9223962e-11 1.5177027e-11 4.0469355e-12 
   78078    0.0320158     3860 0.0001635141            0         3059          801 1.9223962e-11 1.5177027e-11 4.0469355e-12 
   79079   0.65491796     3860 0.00016620261            0         3059          801 1.9223962e-11 1.5177027e-11 4.0469355e-12 
   80040    1.1693928     3860 0.00016665144            0         3059          801 1.9223962e-11 1.5177027e-11 4.0469355e-12 
Loop time of 1.16941 on 4 procs for 2000 steps with 3860 atoms

99.8% CPU use with 4 MPI tasks x no OpenMP threads
timestep 1440
fix_modify k1 demflag 0
fix_modify d1 demflag 0
fix_modify vf1 demflag 0
Step CPU Atoms c_myHeight c_myNtype[1] c_myNtype[2] c_myNtype[3] c_myMass[1] c_myMass[2] c_myMass[3] 
   80040            0     3860 0.00016665144            0         3059          801 1.9223962e-11 1.5177027e-11 4.0469355e-12 
number of iterations: 5000 
maxz = 1.779923e-04 
S-sub-bulk = 6.010140e-03
S-sub-base = 1.982570e-03
S-nh4-bulk = 1.760355e-02
S-nh4-base = 1.670056e-02

   80041   0.64083004     3949 0.00016681905            0         3146          803 1.9853386e-11 1.5689203e-11 4.164183e-12 
Loop time of 0.640845 on 4 procs for 1 steps with 3949 atoms

99.7% CPU use with 4 MPI tasks x no OpenMP threads
fix_modify k1 demflag 1
fix_modify d1 demflag 1
fix_modify vf1 demflag 1
timestep 0.1
run 2000 pre no post no
Step CPU Atoms c_myHeight c_myNtype[1] c_myNtype[2] c_myNtype[3] c_myMass[1] c_myMass[2] c_myMass[3] 
   80041            0     3949 0.00016681905            0         3146          803 1.9853386e-11 1.5689203e-11 4.164183e-12 
   80080  0.033856153     3949 0.00016799594            0         3146          803 1.9853386e-11 1.5689203e-11 4.164183e-12 
   81081   0.66676307     3949 0.00017062677            0         3146          803 1.9853386e-11 1.5689203e-11 4.164183e-12 
   82041    1.1799102     3949 0.00017116478            0         3146          803 1.9853386e-11 1.5689203e-11 4.164183e-12 
Loop time of 1.17993 on 4 procs for 2000 steps with 3949 atoms

99.8% CPU use with 4 MPI tasks x no OpenMP threads
timestep 1440
fix_modify k1 demflag 0
fix_modify d1 demflag 0
fix_modify vf1 demflag 0
Step CPU Atoms c_myHeight c_myNtype[1] c_myNtype[2] c_myNtype[3] c_myMass[1] c_myMass[2] c_myMass[3] 
   82041            0     3949 0.00017116478            0         3146          803 1.9853386e-11 1.5689203e-11 4.164183e-12 
number of iterations: 3883 
maxz = 1.820018e-04 
S-sub-bulk = 5.784090e-03
S-sub-base = 1.900172e-03
S-nh4-bulk = 1.729056e-02
S-nh4-base = 1.644547e-02

   82042   0.49525404     4037 0.00017113638            0         3229          808 2.049766e-11 1.6213047e-11 4.2846128e-12 
Loop time of 0.495269 on 4 procs for 1 steps with 4037 atoms

99.9% CPU use with 4 MPI tasks x no OpenMP threads
fix_modify k1 demflag 1
fix_modify d1 demflag 1
fix_modify vf1 demflag 1
timestep 0.1
run 2000 pre no post no
Step CPU Atoms c_myHeight c_myNtype[1] c_myNtype[2] c_myNtype[3] c_myMass[1] c_myMass[2] c_myMass[3] 
   82042            0     4037 0.00017113638            0         3229          808 2.049766e-11 1.6213047e-11 4.2846128e-12 
   82082  0.036570072     4037 0.00017225871            0         3229          808 2.049766e-11 1.6213047e-11 4.2846128e-12 
   83083   0.67790914     4037 0.00017489323            0         3229          808 2.049766e-11 1.6213047e-11 4.2846128e-12 
   84042     1.220526     4037 0.00017567358            0         3229          808 2.049766e-11 1.6213047e-11 4.2846128e-12 
Loop time of 1.22055 on 4 procs for 2000 steps with 4037 atoms

99.6% CPU use with 4 MPI tasks x no OpenMP threads
timestep 1440
fix_modify k1 demflag 0
fix_modify d1 demflag 0
fix_modify vf1 demflag 0
Step CPU Atoms c_myHeight c_myNtype[1] c_myNtype[2] c_myNtype[3] c_myMass[1] c_myMass[2] c_myMass[3] 
   84042            0     4037 0.00017567358            0         3229          808 2.049766e-11 1.6213047e-11 4.2846128e-12 
number of iterations: 5000 
maxz = 1.875399e-04 
S-sub-bulk = 5.757320e-03
S-sub-base = 1.742847e-03
S-nh4-bulk = 1.699447e-02
S-nh4-base = 1.606538e-02

   84043    0.6676302     4152 0.00017588418            0         3334          818 2.1127888e-11 1.6720664e-11 4.4072241e-12 
Loop time of 0.667644 on 4 procs for 1 steps with 4152 atoms

99.7% CPU use with 4 MPI tasks x no OpenMP threads
fix_modify k1 demflag 1
fix_modify d1 demflag 1
fix_modify vf1 demflag 1
timestep 0.1
run 2000 pre no post no
Step CPU Atoms c_myHeight c_myNtype[1] c_myNtype[2] c_myNtype[3] c_myMass[1] c_myMass[2] c_myMass[3] 
   84043            0     4152 0.00017588418            0         3334          818 2.1127888e-11 1.6720664e-11 4.4072241e-12 
   84084  0.038310051     4152 0.00017734118            0         3334          818 2.1127888e-11 1.6720664e-11 4.4072241e-12 
   85085   0.71013904     4152 0.00017983924            0         3334          818 2.1127888e-11 1.6720664e-11 4.4072241e-12 
   86043    1.2611251     4152 0.00018047981            0         3334          818 2.1127888e-11 1.6720664e-11 4.4072241e-12 
Loop time of 1.26115 on 4 procs for 2000 steps with 4152 atoms

99.9% CPU use with 4 MPI tasks x no OpenMP threads
timestep 1440
fix_modify k1 demflag 0
fix_modify d1 demflag 0
fix_modify vf1 demflag 0
Step CPU Atoms c_myHeight c_myNtype[1] c_myNtype[2] c_myNtype[3] c_myMass[1] c_myMass[2] c_myMass[3] 
   86043            0     4152 0.00018047981            0         3334          818 2.1127888e-11 1.6720664e-11 4.4072241e-12 
number of iterations: 5000 
maxz = 1.910350e-04 
S-sub-bulk = 5.685777e-03
S-sub-base = 1.591411e-03
S-nh4-bulk = 1.669310e-02
S-nh4-base = 1.570627e-02

   86044   0.67139292     4259 0.00018067679            0         3423          836 2.1762684e-11 1.7230068e-11 4.5326164e-12 
Loop time of 0.671407 on 4 procs for 1 steps with 4259 atoms

100.0% CPU use with 4 MPI tasks x no OpenMP threads
fix_modify k1 demflag 1
fix_modify d1 demflag 1
fix_modify vf1 demflag 1
timestep 0.1
run 2000 pre no post no
Step CPU Atoms c_myHeight c_myNtype[1] c_myNtype[2] c_myNtype[3] c_myMass[1] c_myMass[2] c_myMass[3] 
   86044            0     4259 0.00018067679            0         3423          836 2.1762684e-11 1.7230068e-11 4.5326164e-12 
   86086  0.040273905     4259 0.00018193527            0         3423          836 2.1762684e-11 1.7230068e-11 4.5326164e-12 
   87087   0.73077798     4259 0.00018425714            0         3423          836 2.1762684e-11 1.7230068e-11 4.5326164e-12 
   88044     1.303915     4259 0.00018485485            0         3423          836 2.1762684e-11 1.7230068e-11 4.5326164e-12 
Loop time of 1.30394 on 4 procs for 2000 steps with 4259 atoms

100.0% CPU use with 4 MPI tasks x no OpenMP threads
timestep 1440
fix_modify k1 demflag 0
fix_modify d1 demflag 0
fix_modify vf1 demflag 0
Step CPU Atoms c_myHeight c_myNtype[1] c_myNtype[2] c_myNtype[3] c_myMass[1] c_myMass[2] c_myMass[3] 
   88044            0     4259 0.00018485485            0         3423          836 2.1762684e-11 1.7230068e-11 4.5326164e-12 
number of iterations: 5000 
maxz = 1.965211e-04 
S-sub-bulk = 5.749800e-03
S-sub-base = 1.463842e-03
S-nh4-bulk = 1.641647e-02
S-nh4-base = 1.534998e-02

   88045   0.72882295     4386 0.00018512823            0         3521          865 2.2385426e-11 1.772561e-11 4.6598161e-12 
Loop time of 0.728838 on 4 procs for 1 steps with 4386 atoms

100.0% CPU use with 4 MPI tasks x no OpenMP threads
fix_modify k1 demflag 1
fix_modify d1 demflag 1
fix_modify vf1 demflag 1
timestep 0.1
run 2000 pre no post no
Step CPU Atoms c_myHeight c_myNtype[1] c_myNtype[2] c_myNtype[3] c_myMass[1] c_myMass[2] c_myMass[3] 
   88045            0     4386 0.00018512823            0         3521          865 2.2385426e-11 1.772561e-11 4.6598161e-12 
   88088  0.042248011     4386 0.00018630769            0         3521          865 2.2385426e-11 1.772561e-11 4.6598161e-12 
   89089   0.77168083     4386 0.00018894074            0         3521          865 2.2385426e-11 1.772561e-11 4.6598161e-12 
   90045    1.3769069     4386 0.00018968721            0         3521          865 2.2385426e-11 1.772561e-11 4.6598161e-12 
Loop time of 1.37693 on 4 procs for 2000 steps with 4386 atoms

100.0% CPU use with 4 MPI tasks x no OpenMP threads
timestep 1440
fix_modify k1 demflag 0
fix_modify d1 demflag 0
fix_modify vf1 demflag 0
Step CPU Atoms c_myHeight c_myNtype[1] c_myNtype[2] c_myNtype[3] c_myMass[1] c_myMass[2] c_myMass[3] 
   90045            0     4386 0.00018968721            0         3521          865 2.2385426e-11 1.772561e-11 4.6598161e-12 
number of iterations: 5000 
maxz = 2.010189e-04 
S-sub-bulk = 5.688318e-03
S-sub-base = 1.359991e-03
S-nh4-bulk = 1.613886e-02
S-nh4-base = 1.501077e-02

   90046     0.723387     4497 0.00018986184            0         3603          894 2.3017941e-11 1.8228469e-11 4.7894724e-12 
Loop time of 0.723402 on 4 procs for 1 steps with 4497 atoms

99.7% CPU use with 4 MPI tasks x no OpenMP threads
fix_modify k1 demflag 1
fix_modify d1 demflag 1
fix_modify vf1 demflag 1
timestep 0.1
run 2000 pre no post no
Step CPU Atoms c_myHeight c_myNtype[1] c_myNtype[2] c_myNtype[3] c_myMass[1] c_myMass[2] c_myMass[3] 
   90046            0     4497 0.00018986184            0         3603          894 2.3017941e-11 1.8228469e-11 4.7894724e-12 
   90090  0.043448925     4497 0.00019131326            0         3603          894 2.3017941e-11 1.8228469e-11 4.7894724e-12 
   91091   0.81189084     4497 0.00019348978            0         3603          894 2.3017941e-11 1.8228469e-11 4.7894724e-12 
   92046     1.417423     4497 0.00019436934            0         3603          894 2.3017941e-11 1.8228469e-11 4.7894724e-12 
Loop time of 1.41745 on 4 procs for 2000 steps with 4497 atoms

99.9% CPU use with 4 MPI tasks x no OpenMP threads
timestep 1440
fix_modify k1 demflag 0
fix_modify d1 demflag 0
fix_modify vf1 demflag 0
Step CPU Atoms c_myHeight c_myNtype[1] c_myNtype[2] c_myNtype[3] c_myMass[1] c_myMass[2] c_myMass[3] 
   92046            0     4497 0.00019436934            0         3603          894 2.3017941e-11 1.8228469e-11 4.7894724e-12 
number of iterations: 5000 
maxz = 2.062001e-04 
S-sub-bulk = 5.739808e-03
S-sub-base = 1.276858e-03
S-nh4-bulk = 1.589767e-02
S-nh4-base = 1.467824e-02

   92047    0.7417419     4633 0.00019457586            0         3709          924 2.3639899e-11 1.8719576e-11 4.9203229e-12 
Loop time of 0.741756 on 4 procs for 1 steps with 4633 atoms

100.0% CPU use with 4 MPI tasks x no OpenMP threads
fix_modify k1 demflag 1
fix_modify d1 demflag 1
fix_modify vf1 demflag 1
timestep 0.1
run 2000 pre no post no
Step CPU Atoms c_myHeight c_myNtype[1] c_myNtype[2] c_myNtype[3] c_myMass[1] c_myMass[2] c_myMass[3] 
   92047            0     4633 0.00019457586            0         3709          924 2.3639899e-11 1.8719576e-11 4.9203229e-12 
   92092  0.045859098     4633 0.0001960901            0         3709          924 2.3639899e-11 1.8719576e-11 4.9203229e-12 
   93093   0.81335998     4633 0.00019833389            0         3709          924 2.3639899e-11 1.8719576e-11 4.9203229e-12 
   94047     1.435122     4633 0.00019900031            0         3709          924 2.3639899e-11 1.8719576e-11 4.9203229e-12 
Loop time of 1.43514 on 4 procs for 2000 steps with 4633 atoms

100.0% CPU use with 4 MPI tasks x no OpenMP threads
timestep 1440
fix_modify k1 demflag 0
fix_modify d1 demflag 0
fix_modify vf1 demflag 0
Step CPU Atoms c_myHeight c_myNtype[1] c_myNtype[2] c_myNtype[3] c_myMass[1] c_myMass[2] c_myMass[3] 
   94047            0     4633 0.00019900031            0         3709          924 2.3639899e-11 1.8719576e-11 4.9203229e-12 
number of iterations: 5000 
maxz = 2.081001e-04 
S-sub-bulk = 5.682709e-03
S-sub-base = 1.195175e-03
S-nh4-bulk = 1.566118e-02
S-nh4-base = 1.436840e-02

   94048   0.73493481     4775 0.00019929202            0         3817          958 2.4270016e-11 1.9216901e-11 5.0531152e-12 
Loop time of 0.734948 on 4 procs for 1 steps with 4775 atoms

99.9% CPU use with 4 MPI tasks x no OpenMP threads
fix_modify k1 demflag 1
fix_modify d1 demflag 1
fix_modify vf1 demflag 1
timestep 0.1
run 2000 pre no post no
Step CPU Atoms c_myHeight c_myNtype[1] c_myNtype[2] c_myNtype[3] c_myMass[1] c_myMass[2] c_myMass[3] 
   94048            0     4775 0.00019929202            0         3817          958 2.4270016e-11 1.9216901e-11 5.0531152e-12 
   94094  0.048979044     4775 0.00020071841            0         3817          958 2.4270016e-11 1.9216901e-11 5.0531152e-12 
   95095   0.82075596     4775 0.00020272592            0         3817          958 2.4270016e-11 1.9216901e-11 5.0531152e-12 
   96048    1.4737601     4775 0.00020312261            0         3817          958 2.4270016e-11 1.9216901e-11 5.0531152e-12 
Loop time of 1.47378 on 4 procs for 2000 steps with 4775 atoms

99.8% CPU use with 4 MPI tasks x no OpenMP threads
timestep 1440
fix_modify k1 demflag 0
fix_modify d1 demflag 0
fix_modify vf1 demflag 0
Step CPU Atoms c_myHeight c_myNtype[1] c_myNtype[2] c_myNtype[3] c_myMass[1] c_myMass[2] c_myMass[3] 
   96048            0     4775 0.00020312261            0         3817          958 2.4270016e-11 1.9216901e-11 5.0531152e-12 
number of iterations: 4440 
maxz = 2.160588e-04 
S-sub-bulk = 5.483427e-03
S-sub-base = 1.157128e-03
S-nh4-bulk = 1.540306e-02
S-nh4-base = 1.411814e-02

   96049   0.66343093     4932 0.0002035198            0         3929         1003 2.4914798e-11 1.9726099e-11 5.1886995e-12 
Loop time of 0.663447 on 4 procs for 1 steps with 4932 atoms

99.7% CPU use with 4 MPI tasks x no OpenMP threads
fix_modify k1 demflag 1
fix_modify d1 demflag 1
fix_modify vf1 demflag 1
timestep 0.1
run 2000 pre no post no
Step CPU Atoms c_myHeight c_myNtype[1] c_myNtype[2] c_myNtype[3] c_myMass[1] c_myMass[2] c_myMass[3] 
   96049            0     4932 0.0002035198            0         3929         1003 2.4914798e-11 1.9726099e-11 5.1886995e-12 
   96096   0.05380702     4932 0.00020521852            0         3929         1003 2.4914798e-11 1.9726099e-11 5.1886995e-12 
   97097    0.8565259     4932  0.000207487            0         3929         1003 2.4914798e-11 1.9726099e-11 5.1886995e-12 
   98049      1.55199     4932 0.00020831885            0         3929         1003 2.4914798e-11 1.9726099e-11 5.1886995e-12 
Loop time of 1.55201 on 4 procs for 2000 steps with 4932 atoms

99.6% CPU use with 4 MPI tasks x no OpenMP threads
timestep 1440
fix_modify k1 demflag 0
fix_modify d1 demflag 0
fix_modify vf1 demflag 0
Step CPU Atoms c_myHeight c_myNtype[1] c_myNtype[2] c_myNtype[3] c_myMass[1] c_myMass[2] c_myMass[3] 
   98049            0     4932 0.00020831885            0         3929         1003 2.4914798e-11 1.9726099e-11 5.1886995e-12 
number of iterations: 5000 
maxz = 2.170432e-04 
S-sub-bulk = 5.513807e-03
S-sub-base = 1.091032e-03
S-nh4-bulk = 1.519858e-02
S-nh4-base = 1.382060e-02

   98050   0.77242303     5075 0.00020855793            0         4031         1044 2.5540896e-11 2.0216182e-11 5.3247146e-12 
Loop time of 0.772438 on 4 procs for 1 steps with 5075 atoms

99.8% CPU use with 4 MPI tasks x no OpenMP threads
fix_modify k1 demflag 1
fix_modify d1 demflag 1
fix_modify vf1 demflag 1
timestep 0.1
run 2000 pre no post no
Step CPU Atoms c_myHeight c_myNtype[1] c_myNtype[2] c_myNtype[3] c_myMass[1] c_myMass[2] c_myMass[3] 
   98050            0     5075 0.00020855793            0         4031         1044 2.5540896e-11 2.0216182e-11 5.3247146e-12 
   98098  0.056834936     5075 0.00020998765            0         4031         1044 2.5540896e-11 2.0216182e-11 5.3247146e-12 
[...]
  234234   0.23705411    12962 0.00047915214            0        10217         2745 6.2318304e-11 4.9086284e-11 1.3232019e-11 
  235235    2.4429381    12962 0.00047984788            0        10217         2745 6.2318304e-11 4.9086284e-11 1.3232019e-11 
  236118      4.38077    12962 0.00048056087            0        10217         2745 6.2318304e-11 4.9086284e-11 1.3232019e-11 
Loop time of 4.3808 on 4 procs for 2000 steps with 12962 atoms

99.7% CPU use with 4 MPI tasks x no OpenMP threads
timestep 1440
fix_modify k1 demflag 0
fix_modify d1 demflag 0
fix_modify vf1 demflag 0
Step CPU Atoms c_myHeight c_myNtype[1] c_myNtype[2] c_myNtype[3] c_myMass[1] c_myMass[2] c_myMass[3] 
  236118            0    12962 0.00048056087            0        10217         2745 6.2318304e-11 4.9086284e-11 1.3232019e-11 
number of iterations: 886 
maxz = 4.914034e-04 
S-sub-bulk = 5.401232e-03
S-sub-base = 4.214885e-04
S-nh4-bulk = 1.757391e-02
S-nh4-base = 1.427067e-02

  236119     0.305691    12962 0.00048056746            0        10217         2745 6.2318304e-11 4.9086284e-11 1.3232019e-11 
Loop time of 0.305704 on 4 procs for 1 steps with 12962 atoms

99.9% CPU use with 4 MPI tasks x no OpenMP threads
fix_modify k1 demflag 1
fix_modify d1 demflag 1
fix_modify vf1 demflag 1
timestep 0.1
run 2000 pre no post no
Step CPU Atoms c_myHeight c_myNtype[1] c_myNtype[2] c_myNtype[3] c_myMass[1] c_myMass[2] c_myMass[3] 
  236119            0    12962 0.00048056746            0        10217         2745 6.2318304e-11 4.9086284e-11 1.3232019e-11 
  236236   0.26561809    12962 0.00048063469            0        10217         2745 6.2318304e-11 4.9086284e-11 1.3232019e-11 
  237237      2.40415    12962 0.00048114488            0        10217         2745 6.2318304e-11 4.9086284e-11 1.3232019e-11 
  238119     4.238199    12962 0.00048185851            0        10217         2745 6.2318304e-11 4.9086284e-11 1.3232019e-11 
Loop time of 4.23823 on 4 procs for 2000 steps with 12962 atoms

99.7% CPU use with 4 MPI tasks x no OpenMP threads
timestep 1440
fix_modify k1 demflag 0
fix_modify d1 demflag 0
fix_modify vf1 demflag 0
Step CPU Atoms c_myHeight c_myNtype[1] c_myNtype[2] c_myNtype[3] c_myMass[1] c_myMass[2] c_myMass[3] 
  238119            0    12962 0.00048185851            0        10217         2745 6.2318304e-11 4.9086284e-11 1.3232019e-11 
number of iterations: 5000 
maxz = 4.927535e-04 
S-sub-bulk = 5.585120e-03
S-sub-base = 4.151765e-04
S-nh4-bulk = 1.769086e-02
S-nh4-base = 1.433306e-02

  238120    1.6987848    12962 0.00048187184            0        10217         2745 6.2318304e-11 4.9086284e-11 1.3232019e-11 
Loop time of 1.6988 on 4 procs for 1 steps with 12962 atoms

99.9% CPU use with 4 MPI tasks x no OpenMP threads
fix_modify k1 demflag 1
fix_modify d1 demflag 1
fix_modify vf1 demflag 1
timestep 0.1
run 2000 pre no post no
Step CPU Atoms c_myHeight c_myNtype[1] c_myNtype[2] c_myNtype[3] c_myMass[1] c_myMass[2] c_myMass[3] 
  238120            0    12962 0.00048187184            0        10217         2745 6.2318304e-11 4.9086284e-11 1.3232019e-11 
  238238   0.23699188    12962 0.00048191797            0        10217         2745 6.2318304e-11 4.9086284e-11 1.3232019e-11 
  239239     2.491699    12962 0.00048249337            0        10217         2745 6.2318304e-11 4.9086284e-11 1.3232019e-11 
  240120     4.469732    12962 0.00048316329            0        10217         2745 6.2318304e-11 4.9086284e-11 1.3232019e-11 
Loop time of 4.46976 on 4 procs for 2000 steps with 12962 atoms

99.8% CPU use with 4 MPI tasks x no OpenMP threads
timestep 1440
fix_modify k1 demflag 0
fix_modify d1 demflag 0
fix_modify vf1 demflag 0
Step CPU Atoms c_myHeight c_myNtype[1] c_myNtype[2] c_myNtype[3] c_myMass[1] c_myMass[2] c_myMass[3] 
  240120            0    12962 0.00048316329            0        10217         2745 6.2318304e-11 4.9086284e-11 1.3232019e-11 
number of iterations: 3856 
maxz = 4.941297e-04 
S-sub-bulk = 5.679780e-03
S-sub-base = 4.118018e-04
S-nh4-bulk = 1.780361e-02
S-nh4-base = 1.438559e-02

  240121    1.3431671    12962 0.00048317291            0        10217         2745 6.2318304e-11 4.9086284e-11 1.3232019e-11 
Loop time of 1.34318 on 4 procs for 1 steps with 12962 atoms

100.0% CPU use with 4 MPI tasks x no OpenMP threads
fix_modify k1 demflag 1
fix_modify d1 demflag 1
fix_modify vf1 demflag 1
timestep 0.1
run 2000 pre no post no
Step CPU Atoms c_myHeight c_myNtype[1] c_myNtype[2] c_myNtype[3] c_myMass[1] c_myMass[2] c_myMass[3] 
  240121            0    12962 0.00048317291            0        10217         2745 6.2318304e-11 4.9086284e-11 1.3232019e-11 
  240240   0.26380897    12962 0.00048324418            0        10217         2745 6.2318304e-11 4.9086284e-11 1.3232019e-11 
  241241     2.425317    12962 0.00048393514            0        10217         2745 6.2318304e-11 4.9086284e-11 1.3232019e-11 
  242121    4.3108652    12962 0.0004846939            0        10217         2745 6.2318304e-11 4.9086284e-11 1.3232019e-11 
Loop time of 4.31089 on 4 procs for 2000 steps with 12962 atoms

100.0% CPU use with 4 MPI tasks x no OpenMP threads
timestep 1440
fix_modify k1 demflag 0
fix_modify d1 demflag 0
fix_modify vf1 demflag 0
Step CPU Atoms c_myHeight c_myNtype[1] c_myNtype[2] c_myNtype[3] c_myMass[1] c_myMass[2] c_myMass[3] 
  242121            0    12962 0.0004846939            0        10217         2745 6.2318304e-11 4.9086284e-11 1.3232019e-11 
number of iterations: 720 
maxz = 4.950359e-04 
S-sub-bulk = 5.688752e-03
S-sub-base = 4.113209e-04
S-nh4-bulk = 1.788436e-02
S-nh4-base = 1.439579e-02

  242122   0.26111007    12962 0.00048470263            0        10217         2745 6.2318304e-11 4.9086284e-11 1.3232019e-11 
Loop time of 0.261125 on 4 procs for 1 steps with 12962 atoms

99.8% CPU use with 4 MPI tasks x no OpenMP threads
fix_modify k1 demflag 1
fix_modify d1 demflag 1
fix_modify vf1 demflag 1
timestep 0.1
run 2000 pre no post no
Step CPU Atoms c_myHeight c_myNtype[1] c_myNtype[2] c_myNtype[3] c_myMass[1] c_myMass[2] c_myMass[3] 
  242122            0    12962 0.00048470263            0        10217         2745 6.2318304e-11 4.9086284e-11 1.3232019e-11 
  242242   0.26094294    12962 0.00048482002            0        10217         2745 6.2318304e-11 4.9086284e-11 1.3232019e-11 
  243243      2.41834    12962 0.00048551906            0        10217         2745 6.2318304e-11 4.9086284e-11 1.3232019e-11 
  244122    4.5773869    12962 0.0004862322            0        10217         2745 6.2318304e-11 4.9086284e-11 1.3232019e-11 
Loop time of 4.57742 on 4 procs for 2000 steps with 12962 atoms

99.7% CPU use with 4 MPI tasks x no OpenMP threads
timestep 1440
fix_modify k1 demflag 0
fix_modify d1 demflag 0
fix_modify vf1 demflag 0
Step CPU Atoms c_myHeight c_myNtype[1] c_myNtype[2] c_myNtype[3] c_myMass[1] c_myMass[2] c_myMass[3] 
  244122            0    12962 0.0004862322            0        10217         2745 6.2318304e-11 4.9086284e-11 1.3232019e-11 
number of iterations: 550 
maxz = 4.959679e-04 
S-sub-bulk = 5.630196e-03
S-sub-base = 4.109696e-04
S-nh4-bulk = 1.793525e-02
S-nh4-base = 1.440365e-02

  244123   0.20302582    12962 0.00048634519            0        10217         2745 6.2318304e-11 4.9086284e-11 1.3232019e-11 
Loop time of 0.20304 on 4 procs for 1 steps with 12962 atoms

99.9% CPU use with 4 MPI tasks x no OpenMP threads
fix_modify k1 demflag 1
fix_modify d1 demflag 1
fix_modify vf1 demflag 1
timestep 0.1
run 2000 pre no post no
Step CPU Atoms c_myHeight c_myNtype[1] c_myNtype[2] c_myNtype[3] c_myMass[1] c_myMass[2] c_myMass[3] 
  244123            0    12962 0.00048634519            0        10217         2745 6.2318304e-11 4.9086284e-11 1.3232019e-11 
  244244   0.27641797    12962 0.00048637011            0        10217         2745 6.2318304e-11 4.9086284e-11 1.3232019e-11 
  245245    2.4700699    12962 0.00048703643            0        10217         2745 6.2318304e-11 4.9086284e-11 1.3232019e-11 
  246123    4.3595319    12962 0.00048759404            0        10217         2745 6.2318304e-11 4.9086284e-11 1.3232019e-11 
Loop time of 4.35956 on 4 procs for 2000 steps with 12962 atoms

99.8% CPU use with 4 MPI tasks x no OpenMP threads
timestep 1440
fix_modify k1 demflag 0
fix_modify d1 demflag 0
fix_modify vf1 demflag 0
Step CPU Atoms c_myHeight c_myNtype[1] c_myNtype[2] c_myNtype[3] c_myMass[1] c_myMass[2] c_myMass[3] 
  246123            0    12962 0.00048759404            0        10217         2745 6.2318304e-11 4.9086284e-11 1.3232019e-11 
number of iterations: 758 
maxz = 4.976162e-04 
S-sub-bulk = 5.526071e-03
S-sub-base = 4.105018e-04
S-nh4-bulk = 1.796375e-02
S-nh4-base = 1.441458e-02

  246124   0.26894689    12962 0.00048757853            0        10217         2745 6.2318304e-11 4.9086284e-11 1.3232019e-11 
Loop time of 0.268961 on 4 procs for 1 steps with 12962 atoms

99.9% CPU use with 4 MPI tasks x no OpenMP threads
fix_modify k1 demflag 1
fix_modify d1 demflag 1
fix_modify vf1 demflag 1
timestep 0.1
run 2000 pre no post no
Step CPU Atoms c_myHeight c_myNtype[1] c_myNtype[2] c_myNtype[3] c_myMass[1] c_myMass[2] c_myMass[3] 
  246124            0    12962 0.00048757853            0        10217         2745 6.2318304e-11 4.9086284e-11 1.3232019e-11 
  246246   0.26490998    12962 0.00048766671            0        10217         2745 6.2318304e-11 4.9086284e-11 1.3232019e-11 
  247247    2.3834929    12962 0.00048836375            0        10217         2745 6.2318304e-11 4.9086284e-11 1.3232019e-11 
  248124     4.363132    12962 0.00048889127            0        10217         2745 6.2318304e-11 4.9086284e-11 1.3232019e-11 
Loop time of 4.36316 on 4 procs for 2000 steps with 12962 atoms

99.7% CPU use with 4 MPI tasks x no OpenMP threads
timestep 1440
fix_modify k1 demflag 0
fix_modify d1 demflag 0
fix_modify vf1 demflag 0
Step CPU Atoms c_myHeight c_myNtype[1] c_myNtype[2] c_myNtype[3] c_myMass[1] c_myMass[2] c_myMass[3] 
  248124            0    12962 0.00048889127            0        10217         2745 6.2318304e-11 4.9086284e-11 1.3232019e-11 
number of iterations: 772 
maxz = 4.981941e-04 
S-sub-bulk = 5.409098e-03
S-sub-base = 4.100391e-04
S-nh4-bulk = 1.797467e-02
S-nh4-base = 1.442581e-02

  248125   0.28292012    12962 0.00048883788            0        10217         2745 6.2318304e-11 4.9086284e-11 1.3232019e-11 
Loop time of 0.282934 on 4 procs for 1 steps with 12962 atoms

99.9% CPU use with 4 MPI tasks x no OpenMP threads
fix_modify k1 demflag 1
fix_modify d1 demflag 1
fix_modify vf1 demflag 1
timestep 0.1
run 2000 pre no post no
Step CPU Atoms c_myHeight c_myNtype[1] c_myNtype[2] c_myNtype[3] c_myMass[1] c_myMass[2] c_myMass[3] 
  248125            0    12962 0.00048883788            0        10217         2745 6.2318304e-11 4.9086284e-11 1.3232019e-11 
  248248   0.30447483    12962 0.00048893599            0        10217         2745 6.2318304e-11 4.9086284e-11 1.3232019e-11 
  249249     2.716923    12962 0.00048968654            0        10217         2745 6.2318304e-11 4.9086284e-11 1.3232019e-11 
  250125    4.9184868    12962 0.00049021043            0        10217         2745 6.2318304e-11 4.9086284e-11 1.3232019e-11 
Loop time of 4.91851 on 4 procs for 2000 steps with 12962 atoms

99.9% CPU use with 4 MPI tasks x no OpenMP threads
timestep 1440
fix_modify k1 demflag 0
fix_modify d1 demflag 0
fix_modify vf1 demflag 0
Step CPU Atoms c_myHeight c_myNtype[1] c_myNtype[2] c_myNtype[3] c_myMass[1] c_myMass[2] c_myMass[3] 
  250125            0    12962 0.00049021043            0        10217         2745 6.2318304e-11 4.9086284e-11 1.3232019e-11 
number of iterations: 1478 
maxz = 4.992669e-04 
S-sub-bulk = 5.302010e-03
S-sub-base = 4.091807e-04
S-nh4-bulk = 1.796777e-02
S-nh4-base = 1.444760e-02

  250126   0.62997103    12962 0.0004902181            0        10217         2745 6.2318304e-11 4.9086284e-11 1.3232019e-11 
Loop time of 0.629987 on 4 procs for 1 steps with 12962 atoms

99.7% CPU use with 4 MPI tasks x no OpenMP threads
fix_modify k1 demflag 1
fix_modify d1 demflag 1
fix_modify vf1 demflag 1
timestep 0.1
run 2000 pre no post no
Step CPU Atoms c_myHeight c_myNtype[1] c_myNtype[2] c_myNtype[3] c_myMass[1] c_myMass[2] c_myMass[3] 
  250126            0    12962 0.0004902181            0        10217         2745 6.2318304e-11 4.9086284e-11 1.3232019e-11 
  250250   0.33396721    12962 0.00049030234            0        10217         2745 6.2318304e-11 4.9086284e-11 1.3232019e-11 
  251251    2.7734852    12962 0.00049082108            0        10217         2745 6.2318304e-11 4.9086284e-11 1.3232019e-11 
  252126     4.557971    12962 0.00049139784            0        10217         2745 6.2318304e-11 4.9086284e-11 1.3232019e-11 
Loop time of 4.558 on 4 procs for 2000 steps with 12962 atoms

100.0% CPU use with 4 MPI tasks x no OpenMP threads
timestep 1440
fix_modify k1 demflag 0
fix_modify d1 demflag 0
fix_modify vf1 demflag 0
Step CPU Atoms c_myHeight c_myNtype[1] c_myNtype[2] c_myNtype[3] c_myMass[1] c_myMass[2] c_myMass[3] 
  252126            0    12962 0.00049139784            0        10217         2745 6.2318304e-11 4.9086284e-11 1.3232019e-11 
number of iterations: 1827 
maxz = 5.004253e-04 
S-sub-bulk = 5.235195e-03
S-sub-base = 4.081819e-04
S-nh4-bulk = 1.795425e-02
S-nh4-base = 1.447519e-02

number of iterations: 9043 
S-sub-bulk = 5.716104e-03
S-sub-base = 4.052337e-04
S-nh4-bulk = 1.806610e-02
S-nh4-base = 1.462683e-02

number of iterations: 4677 
S-sub-bulk = 5.889431e-03
S-sub-base = 4.030467e-04
S-nh4-bulk = 1.815725e-02
S-nh4-base = 1.470656e-02

number of iterations: 3432 
S-sub-bulk = 5.891247e-03
S-sub-base = 4.003873e-04
S-nh4-bulk = 1.822913e-02
S-nh4-base = 1.476289e-02

number of iterations: 102 
S-sub-bulk = 5.889995e-03
S-sub-base = 4.003040e-04
S-nh4-bulk = 1.828202e-02
S-nh4-base = 1.476455e-02

number of iterations: 132 
S-sub-bulk = 5.885804e-03
S-sub-base = 4.001963e-04
S-nh4-bulk = 1.832102e-02
S-nh4-base = 1.476669e-02

number of iterations: 121 
S-sub-bulk = 5.879865e-03
S-sub-base = 4.000980e-04
S-nh4-bulk = 1.834980e-02
S-nh4-base = 1.476866e-02

number of iterations: 101 
S-sub-bulk = 5.873252e-03
S-sub-base = 4.000162e-04
S-nh4-bulk = 1.837106e-02
S-nh4-base = 1.477029e-02

number of iterations: 81 
S-sub-bulk = 5.866704e-03
S-sub-base = 3.999507e-04
S-nh4-bulk = 1.838676e-02
S-nh4-base = 1.477161e-02

number of iterations: 60 
S-sub-bulk = 5.860719e-03
S-sub-base = 3.999024e-04
S-nh4-bulk = 1.839836e-02
S-nh4-base = 1.477258e-02

number of iterations: 49 
S-sub-bulk = 5.855422e-03
S-sub-base = 3.998629e-04
S-nh4-bulk = 1.840693e-02
S-nh4-base = 1.477338e-02

number of iterations: 40 
S-sub-bulk = 5.850838e-03
S-sub-base = 3.998308e-04
S-nh4-bulk = 1.841328e-02
S-nh4-base = 1.477403e-02

number of iterations: 44 
S-sub-bulk = 5.846750e-03
S-sub-base = 3.997956e-04
S-nh4-bulk = 1.841799e-02
S-nh4-base = 1.477474e-02

number of iterations: 42 
S-sub-bulk = 5.843096e-03
S-sub-base = 3.997620e-04
S-nh4-bulk = 1.842149e-02
S-nh4-base = 1.477542e-02

number of iterations: 39 
S-sub-bulk = 5.839839e-03
S-sub-base = 3.997308e-04
S-nh4-bulk = 1.842412e-02
S-nh4-base = 1.477605e-02

number of iterations: 36 
S-sub-bulk = 5.836942e-03
S-sub-base = 3.997021e-04
S-nh4-bulk = 1.842609e-02
S-nh4-base = 1.477664e-02

number of iterations: 33 
S-sub-bulk = 5.834371e-03
S-sub-base = 3.996759e-04
S-nh4-bulk = 1.842758e-02
S-nh4-base = 1.477717e-02

number of iterations: 31 
S-sub-bulk = 5.832085e-03
S-sub-base = 3.996512e-04
S-nh4-bulk = 1.842871e-02
S-nh4-base = 1.477767e-02

number of iterations: 29 
S-sub-bulk = 5.830048e-03
S-sub-base = 3.996282e-04
S-nh4-bulk = 1.842957e-02
S-nh4-base = 1.477814e-02

number of iterations: 29 
S-sub-bulk = 5.828207e-03
S-sub-base = 3.996052e-04
S-nh4-bulk = 1.843024e-02
S-nh4-base = 1.477861e-02

number of iterations: 29 
S-sub-bulk = 5.826521e-03
S-sub-base = 3.995823e-04
S-nh4-bulk = 1.843077e-02
S-nh4-base = 1.477908e-02

number of iterations: 29 
S-sub-bulk = 5.824959e-03
S-sub-base = 3.995594e-04
S-nh4-bulk = 1.843119e-02
S-nh4-base = 1.477955e-02

number of iterations: 29 
S-sub-bulk = 5.823499e-03
S-sub-base = 3.995365e-04
S-nh4-bulk = 1.843154e-02
S-nh4-base = 1.478002e-02

number of iterations: 29 
S-sub-bulk = 5.822122e-03
S-sub-base = 3.995137e-04
S-nh4-bulk = 1.843183e-02
S-nh4-base = 1.478049e-02

number of iterations: 29 
S-sub-bulk = 5.820813e-03
S-sub-base = 3.994909e-04
S-nh4-bulk = 1.843208e-02
S-nh4-base = 1.478096e-02

number of iterations: 29 
S-sub-bulk = 5.819564e-03
S-sub-base = 3.994681e-04
S-nh4-bulk = 1.843230e-02
S-nh4-base = 1.478143e-02

number of iterations: 29 
S-sub-bulk = 5.818364e-03
S-sub-base = 3.994454e-04
S-nh4-bulk = 1.843250e-02
S-nh4-base = 1.478190e-02

number of iterations: 29 
S-sub-bulk = 5.817207e-03
S-sub-base = 3.994227e-04
S-nh4-bulk = 1.843268e-02
S-nh4-base = 1.478237e-02

number of iterations: 29 
S-sub-bulk = 5.816089e-03
S-sub-base = 3.994001e-04
S-nh4-bulk = 1.843285e-02
S-nh4-base = 1.478284e-02

number of iterations: 29 
S-sub-bulk = 5.815005e-03
S-sub-base = 3.993775e-04
S-nh4-bulk = 1.843301e-02
S-nh4-base = 1.478331e-02

number of iterations: 29 
S-sub-bulk = 5.813952e-03
S-sub-base = 3.993549e-04
S-nh4-bulk = 1.843317e-02
S-nh4-base = 1.478378e-02

number of iterations: 29 
S-sub-bulk = 5.812928e-03
S-sub-base = 3.993324e-04
S-nh4-bulk = 1.843332e-02
S-nh4-base = 1.478425e-02

number of iterations: 29 
S-sub-bulk = 5.811930e-03
S-sub-base = 3.993099e-04
S-nh4-bulk = 1.843346e-02
S-nh4-base = 1.478472e-02

number of iterations: 29 
S-sub-bulk = 5.810957e-03
S-sub-base = 3.992875e-04
S-nh4-bulk = 1.843361e-02
S-nh4-base = 1.478519e-02

number of iterations: 29 
S-sub-bulk = 5.810008e-03
S-sub-base = 3.992651e-04
S-nh4-bulk = 1.843375e-02
S-nh4-base = 1.478566e-02

number of iterations: 29 
S-sub-bulk = 5.809081e-03
S-sub-base = 3.992428e-04
S-nh4-bulk = 1.843389e-02
S-nh4-base = 1.478613e-02

number of iterations: 29 
S-sub-bulk = 5.808176e-03
S-sub-base = 3.992205e-04
S-nh4-bulk = 1.843403e-02
S-nh4-base = 1.478660e-02

number of iterations: 29 
S-sub-bulk = 5.807291e-03
S-sub-base = 3.991982e-04
S-nh4-bulk = 1.843417e-02
S-nh4-base = 1.478707e-02

number of iterations: 29 
S-sub-bulk = 5.806427e-03
S-sub-base = 3.991760e-04
S-nh4-bulk = 1.843431e-02
S-nh4-base = 1.478754e-02

number of iterations: 29 
S-sub-bulk = 5.805581e-03
S-sub-base = 3.991539e-04
S-nh4-bulk = 1.843445e-02
S-nh4-base = 1.478801e-02

number of iterations: 29 
S-sub-bulk = 5.804755e-03
S-sub-base = 3.991318e-04
S-nh4-bulk = 1.843458e-02
S-nh4-base = 1.478847e-02

number of iterations: 29 
S-sub-bulk = 5.803947e-03
S-sub-base = 3.991097e-04
S-nh4-bulk = 1.843472e-02
S-nh4-base = 1.478894e-02

number of iterations: 29 
S-sub-bulk = 5.803156e-03
S-sub-base = 3.990877e-04
S-nh4-bulk = 1.843486e-02
S-nh4-base = 1.478941e-02

number of iterations: 29 
S-sub-bulk = 5.802383e-03
S-sub-base = 3.990657e-04
S-nh4-bulk = 1.843500e-02
S-nh4-base = 1.478988e-02

number of iterations: 29 
S-sub-bulk = 5.801627e-03
S-sub-base = 3.990438e-04
S-nh4-bulk = 1.843514e-02
S-nh4-base = 1.479035e-02

number of iterations: 29 
S-sub-bulk = 5.800888e-03
S-sub-base = 3.990219e-04
S-nh4-bulk = 1.843528e-02
S-nh4-base = 1.479082e-02

number of iterations: 29 
S-sub-bulk = 5.800165e-03
S-sub-base = 3.990001e-04
S-nh4-bulk = 1.843542e-02
S-nh4-base = 1.479129e-02

number of iterations: 29 
S-sub-bulk = 5.799458e-03
S-sub-base = 3.989784e-04
S-nh4-bulk = 1.843555e-02
S-nh4-base = 1.479176e-02

number of iterations: 29 
S-sub-bulk = 5.798767e-03
S-sub-base = 3.989567e-04
S-nh4-bulk = 1.843569e-02
S-nh4-base = 1.479223e-02

number of iterations: 29 
S-sub-bulk = 5.798091e-03
S-sub-base = 3.989350e-04
S-nh4-bulk = 1.843583e-02
S-nh4-base = 1.479270e-02

number of iterations: 29 
S-sub-bulk = 5.797430e-03
S-sub-base = 3.989134e-04
S-nh4-bulk = 1.843597e-02
S-nh4-base = 1.479317e-02

ERROR: Finish (../fix_bio_verify.cpp:310)
