  Granular Flow Simulation 

       0 atoms 
       2 atom types 
       5 nutrients

   0.000000e-04   4.000000e-04  xlo xhi 
   0.000000e-04   3.000000e-05  ylo yhi 
   0.000000e-04   6.000000e-04  zlo zhi

 Atoms

 Nutrients

     1 sub l 0.03 0.03 0.03 0.03 0.03 0.03 0.03
     2 o2 l 0.01 0.01 0.01 0.01 0.01 0.01 0.01
     3 nh4 l 0.006 0.006 0.006 0.006 0.006 0.006 0.006
     4 no2 l 1e-4 1e-4 1e-4 1e-4 1e-4 1e-4 1e-4
     5 no3 l 1e-4 1e-4 1e-4 1e-4 1e-4 1e-4 1e-4


 Diffusion Coeffs
    
     sub 1.1574e-9
     o2 2.3148e-9
     nh4 1.9676e-9
     no2 0
     no3 0

 Type Name

     1 het
     2 aob

 Ks
     
     het 4e-3 2e-4 0 0 0
     aob 0 5e-4 1e-3 0 0

Growth Rate

     het 0.000069444
     aob 0.000025463

 Yield
    
     het 0.63
     aob 0.24

 Maintenance
 
     het 0.000003694
     aob 0.000001389

 Decay

     het 0.000000917
     aob 0.000000347


