LAMMPS (5 Nov 2016)
# NUFEB simulation

units si
atom_style      bio
atom_modify     map array sort 1000 5.0e-6
boundary        pp pp ff
newton          off
processors 4 1 1

comm_modify     vel yes

read_data_bio atom.in
  orthogonal box = (0 0 0) to (0.0004 3e-05 0.0006)
  4 by 1 by 1 MPI processor grid
  reading atoms ...
  0 atoms
  5 nutrients

group HET type 1
0 atoms in group HET
group AOB type 2
0 atoms in group AOB

variable  x equal 40
variable  y equal 3
variable  z equal 1

lattice sc 2e-5 origin 0.75 0.5 0.5
Lattice spacing in x,y,z = 2e-05 2e-05 2e-05
region reg block 0 $x 0 $y 0 $z
region reg block 0 40 0 $y 0 $z
region reg block 0 40 0 3 0 $z
region reg block 0 40 0 3 0 1
create_atoms 1 random 200 1867 reg
Created 200 atoms

#lattice sc 2e-5 origin 0.25 0.5 0.5
region reg2 block 0 $x 0 $y 0 $z
region reg2 block 0 40 0 $y 0 $z
region reg2 block 0 40 0 3 0 $z
region reg2 block 0 40 0 3 0 1
create_atoms 2 random 200 7456 reg
Created 200 atoms

neighbor        5e-7 bin

set type 1 diameter 9.5e-6
  200 settings made for diameter
set type 1 density 15.2
  200 settings made for density
set type 2 diameter 9.5e-6
  200 settings made for diameter
set type 2 density 15.2
  200 settings made for density

neigh_modify    delay 0 one 2000

##############Define DEM Variables&Commands##############

pair_style  gran/hooke/history 1.e-4 NULL 1.e-5 NULL 0.0 1
pair_coeff  * *

timestep 1440

variable kanc equal 50

fix 1 all nve/limit 1e-7
fix fv all viscous 1e-5

fix zw all wall/gran hooke/history 2000 NULL 500.0 NULL 1.5 0 zplane  0.0  6e-04

fix zwa all walladh v_kanc zplane  0.0   6e-04

variable ke equal 5e+10
#fix j1 all epsadh 1 v_ke 1

##############Define IBm Variables##############

#EPS density, ratio variables and division diameter
variable EPSdens equal 30
variable EPSratio equal 1.25
variable divDia equal 1e-5

#kinetics variables
variable etaHET equal 0.0
variable diffT equal 1e-3
variable tol equal 1e-5
variable layer equal 0

##############Define IBm Commands##############

fix k1 all kinetics 1 40 3 60 v_diffT v_layer niter 5000 demflag 0
fix kgm all kinetics/growth/monod v_EPSdens v_etaHET
fix g1 all kinetics/diffusion v_tol pp pp nd kg bulk 2.31e-7 1.25e-3 0.1
fix d1 all divide 1 v_EPSdens v_divDia 0890 demflag 0
fix vf1 all verify 1 bm3 demflag 0

##############Simulation Output##############

compute myHeight all avg_height
compute myMass all biomass
compute myNtype all ntypes

#dump du0 all bio 5010 biomass ntypes bulk
#dump		id all custom 120100 snapshot.bubblemd id type diameter x y z
thermo_style    custom step cpu atoms c_myHeight c_myNtype[*] c_myMass[*]
thermo          1001
thermo_modify   lost warn

##############Two-loops Run##############

run 3600 pre no post no every 1 "fix_modify k1 demflag 1" "fix_modify d1 demflag 1" "fix_modify vf1 demflag 1" "timestep 0.1" "run 2000 pre no post no" "timestep 1440" "fix_modify k1 demflag 0" "fix_modify d1 demflag 0" "fix_modify vf1 demflag 0"
WARNING: EPS is not defined in fix_kinetics/kinetics/monod (../fix_bio_kinetics_monod.cpp:253)
ae = 1.387500e+02, top = 2.474478e-05, base = 4.871454e-06, ave_h = 1.093042e-05 
Neighbor list info ...
  2 neighbor list requests
  update every 1 steps, delay 0 steps, check yes
  max neighbors/atom: 2000, page size: 100000
  master list distance cutoff = 1e-05
  ghost atom cutoff = 1e-05
  binsize = 5e-06 -> bins = 80 6 120
Memory usage per processor = 7.47553 Mbytes
Step CPU Atoms c_myHeight c_myNtype[1] c_myNtype[2] c_myNtype[3] c_myMass[1] c_myMass[2] c_myMass[3] 
       0            0      400 1.8100859e-05            0          200          200 2.7294366e-12 1.3647183e-12 1.3647183e-12 
number of iterations: 562 
maxz = 2.495220e-05 
S-sub-bulk = 2.875234e-02
S-sub-base = 2.984899e-02
S-nh4-bulk = 4.869844e-03
S-nh4-base = 5.908452e-03

       1  0.019026995      400 1.8263608e-05            0          200          200 2.8758355e-12 1.4737084e-12 1.4021271e-12 
Loop time of 0.0190423 on 4 procs for 1 steps with 400 atoms

99.9% CPU use with 4 MPI tasks x no OpenMP threads
fix_modify k1 demflag 1
fix_modify d1 demflag 1
fix_modify vf1 demflag 1
timestep 0.1
run 2000 pre no post no
Step CPU Atoms c_myHeight c_myNtype[1] c_myNtype[2] c_myNtype[3] c_myMass[1] c_myMass[2] c_myMass[3] 
       1            0      400 1.8263608e-05            0          200          200 2.8758355e-12 1.4737084e-12 1.4021271e-12 
    1001  0.044946909      400 2.7577534e-05            0          200          200 2.8758355e-12 1.4737084e-12 1.4021271e-12 
    2001  0.071558952      400 2.7580497e-05            0          200          200 2.8758355e-12 1.4737084e-12 1.4021271e-12 
Loop time of 0.0715769 on 4 procs for 2000 steps with 400 atoms

99.9% CPU use with 4 MPI tasks x no OpenMP threads
timestep 1440
fix_modify k1 demflag 0
fix_modify d1 demflag 0
fix_modify vf1 demflag 0
Step CPU Atoms c_myHeight c_myNtype[1] c_myNtype[2] c_myNtype[3] c_myMass[1] c_myMass[2] c_myMass[3] 
    2001            0      400 2.7580497e-05            0          200          200 2.8758355e-12 1.4737084e-12 1.4021271e-12 
number of iterations: 970 
maxz = 3.981759e-05 
S-sub-bulk = 2.774306e-02
S-sub-base = 2.868111e-02
S-nh4-bulk = 4.045273e-03
S-nh4-base = 4.809029e-03

    2002  0.031383991      400 2.7744362e-05            0          200          200 3.0301023e-12 1.5908324e-12 1.4392698e-12 
Loop time of 0.0313995 on 4 procs for 1 steps with 400 atoms

100.0% CPU use with 4 MPI tasks x no OpenMP threads
fix_modify k1 demflag 1
fix_modify d1 demflag 1
fix_modify vf1 demflag 1
timestep 0.1
run 2000 pre no post no
Step CPU Atoms c_myHeight c_myNtype[1] c_myNtype[2] c_myNtype[3] c_myMass[1] c_myMass[2] c_myMass[3] 
    2002            0      400 2.7744362e-05            0          200          200 3.0301023e-12 1.5908324e-12 1.4392698e-12 
    3003  0.032416105      400 2.8404982e-05            0          200          200 3.0301023e-12 1.5908324e-12 1.4392698e-12 
    4002  0.057308912      400 2.8489512e-05            0          200          200 3.0301023e-12 1.5908324e-12 1.4392698e-12 
Loop time of 0.0573261 on 4 procs for 2000 steps with 400 atoms

99.9% CPU use with 4 MPI tasks x no OpenMP threads
timestep 1440
fix_modify k1 demflag 0
fix_modify d1 demflag 0
fix_modify vf1 demflag 0
Step CPU Atoms c_myHeight c_myNtype[1] c_myNtype[2] c_myNtype[3] c_myMass[1] c_myMass[2] c_myMass[3] 
    4002            0      400 2.8489512e-05            0          200          200 3.0301023e-12 1.5908324e-12 1.4392698e-12 
number of iterations: 1499 
maxz = 4.131697e-05 
S-sub-bulk = 2.690324e-02
S-sub-base = 2.758675e-02
S-nh4-bulk = 3.453237e-03
S-nh4-base = 3.942646e-03

    4003  0.060328007      400 2.8555126e-05            0          200          200 3.1924151e-12 1.716561e-12 1.4758542e-12 
Loop time of 0.0603445 on 4 procs for 1 steps with 400 atoms

100.0% CPU use with 4 MPI tasks x no OpenMP threads
fix_modify k1 demflag 1
fix_modify d1 demflag 1
fix_modify vf1 demflag 1
timestep 0.1
run 2000 pre no post no
Step CPU Atoms c_myHeight c_myNtype[1] c_myNtype[2] c_myNtype[3] c_myMass[1] c_myMass[2] c_myMass[3] 
    4003            0      400 2.8555126e-05            0          200          200 3.1924151e-12 1.716561e-12 1.4758542e-12 
    4004 6.8902969e-05      400 2.8601301e-05            0          200          200 3.1924151e-12 1.716561e-12 1.4758542e-12 
    5005  0.035665035      400 2.9455045e-05            0          200          200 3.1924151e-12 1.716561e-12 1.4758542e-12 
    6003  0.064476013      400 2.9529318e-05            0          200          200 3.1924151e-12 1.716561e-12 1.4758542e-12 
Loop time of 0.0644937 on 4 procs for 2000 steps with 400 atoms

100.0% CPU use with 4 MPI tasks x no OpenMP threads
timestep 1440
fix_modify k1 demflag 0
fix_modify d1 demflag 0
fix_modify vf1 demflag 0
Step CPU Atoms c_myHeight c_myNtype[1] c_myNtype[2] c_myNtype[3] c_myMass[1] c_myMass[2] c_myMass[3] 
    6003            0      400 2.9529318e-05            0          200          200 3.1924151e-12 1.716561e-12 1.4758542e-12 
number of iterations: 2025 
maxz = 4.271589e-05 
S-sub-bulk = 2.618054e-02
S-sub-base = 2.664617e-02
S-nh4-bulk = 3.033806e-03
S-nh4-base = 3.309514e-03

    6004  0.095005989      600 3.0943145e-05            0          400          200 3.3633356e-12 1.8515241e-12 1.5118114e-12 
Loop time of 0.0950234 on 4 procs for 1 steps with 600 atoms

100.0% CPU use with 4 MPI tasks x no OpenMP threads
fix_modify k1 demflag 1
fix_modify d1 demflag 1
fix_modify vf1 demflag 1
timestep 0.1
run 2000 pre no post no
Step CPU Atoms c_myHeight c_myNtype[1] c_myNtype[2] c_myNtype[3] c_myMass[1] c_myMass[2] c_myMass[3] 
    6004            0      600 3.0943145e-05            0          400          200 3.3633356e-12 1.8515241e-12 1.5118114e-12 
    6006 0.00012993813      600 3.1121742e-05            0          400          200 3.3633356e-12 1.8515241e-12 1.5118114e-12 
    7007  0.049689054      600 3.389583e-05            0          400          200 3.3633356e-12 1.8515241e-12 1.5118114e-12 
    8004  0.077708006      600 3.3924495e-05            0          400          200 3.3633356e-12 1.8515241e-12 1.5118114e-12 
Loop time of 0.0777268 on 4 procs for 2000 steps with 600 atoms

99.9% CPU use with 4 MPI tasks x no OpenMP threads
timestep 1440
fix_modify k1 demflag 0
fix_modify d1 demflag 0
fix_modify vf1 demflag 0
Step CPU Atoms c_myHeight c_myNtype[1] c_myNtype[2] c_myNtype[3] c_myMass[1] c_myMass[2] c_myMass[3] 
    8004            0      600 3.3924495e-05            0          400          200 3.3633356e-12 1.8515241e-12 1.5118114e-12 
number of iterations: 1874 
maxz = 4.541515e-05 
S-sub-bulk = 2.553446e-02
S-sub-base = 2.591563e-02
S-nh4-bulk = 2.734509e-03
S-nh4-base = 2.895728e-03

    8005  0.082818031      600 3.3967805e-05            0          400          200 3.5439145e-12 1.9965394e-12 1.5473752e-12 
Loop time of 0.0828318 on 4 procs for 1 steps with 600 atoms

99.9% CPU use with 4 MPI tasks x no OpenMP threads
fix_modify k1 demflag 1
fix_modify d1 demflag 1
fix_modify vf1 demflag 1
timestep 0.1
run 2000 pre no post no
Step CPU Atoms c_myHeight c_myNtype[1] c_myNtype[2] c_myNtype[3] c_myMass[1] c_myMass[2] c_myMass[3] 
    8005            0      600 3.3967805e-05            0          400          200 3.5439145e-12 1.9965394e-12 1.5473752e-12 
    8008 0.00036406517      600 3.4162196e-05            0          400          200 3.5439145e-12 1.9965394e-12 1.5473752e-12 
    9009  0.045948029      600 3.4903432e-05            0          400          200 3.5439145e-12 1.9965394e-12 1.5473752e-12 
   10005   0.07979393      600 3.4882725e-05            0          400          200 3.5439145e-12 1.9965394e-12 1.5473752e-12 
Loop time of 0.0798109 on 4 procs for 2000 steps with 600 atoms

100.0% CPU use with 4 MPI tasks x no OpenMP threads
timestep 1440
fix_modify k1 demflag 0
fix_modify d1 demflag 0
fix_modify vf1 demflag 0
Step CPU Atoms c_myHeight c_myNtype[1] c_myNtype[2] c_myNtype[3] c_myMass[1] c_myMass[2] c_myMass[3] 
   10005            0      600 3.4882725e-05            0          400          200 3.5439145e-12 1.9965394e-12 1.5473752e-12 
number of iterations: 1755 
maxz = 4.658561e-05 
S-sub-bulk = 2.493624e-02
S-sub-base = 2.525249e-02
S-nh4-bulk = 2.520138e-03
S-nh4-base = 2.599739e-03

   10006  0.078733921      600 3.495247e-05            0          400          200 3.7349946e-12 2.1523314e-12 1.5826631e-12 
Loop time of 0.078753 on 4 procs for 1 steps with 600 atoms

100.0% CPU use with 4 MPI tasks x no OpenMP threads
fix_modify k1 demflag 1
fix_modify d1 demflag 1
fix_modify vf1 demflag 1
timestep 0.1
run 2000 pre no post no
Step CPU Atoms c_myHeight c_myNtype[1] c_myNtype[2] c_myNtype[3] c_myMass[1] c_myMass[2] c_myMass[3] 
   10006            0      600 3.495247e-05            0          400          200 3.7349946e-12 2.1523314e-12 1.5826631e-12 
   10010 0.00045204163      600 3.5086711e-05            0          400          200 3.7349946e-12 2.1523314e-12 1.5826631e-12 
   11011  0.047080994      600 3.5991926e-05            0          400          200 3.7349946e-12 2.1523314e-12 1.5826631e-12 
   12006   0.07925415      600 3.6051047e-05            0          400          200 3.7349946e-12 2.1523314e-12 1.5826631e-12 
Loop time of 0.079271 on 4 procs for 2000 steps with 600 atoms

100.0% CPU use with 4 MPI tasks x no OpenMP threads
timestep 1440
fix_modify k1 demflag 0
fix_modify d1 demflag 0
fix_modify vf1 demflag 0
Step CPU Atoms c_myHeight c_myNtype[1] c_myNtype[2] c_myNtype[3] c_myMass[1] c_myMass[2] c_myMass[3] 
   12006            0      600 3.6051047e-05            0          400          200 3.7349946e-12 2.1523314e-12 1.5826631e-12 
number of iterations: 1632 
maxz = 4.830309e-05 
S-sub-bulk = 2.436415e-02
S-sub-base = 2.464496e-02
S-nh4-bulk = 2.364229e-03
S-nh4-base = 2.387515e-03

   12007  0.068360806      600 3.6103256e-05            0          400          200 3.9374949e-12 2.3196797e-12 1.6178153e-12 
Loop time of 0.0683749 on 4 procs for 1 steps with 600 atoms

100.0% CPU use with 4 MPI tasks x no OpenMP threads
fix_modify k1 demflag 1
fix_modify d1 demflag 1
fix_modify vf1 demflag 1
timestep 0.1
run 2000 pre no post no
Step CPU Atoms c_myHeight c_myNtype[1] c_myNtype[2] c_myNtype[3] c_myMass[1] c_myMass[2] c_myMass[3] 
   12007            0      600 3.6103256e-05            0          400          200 3.9374949e-12 2.3196797e-12 1.6178153e-12 
   12012 0.00048089027      600 3.6265241e-05            0          400          200 3.9374949e-12 2.3196797e-12 1.6178153e-12 
   13013  0.050487041      600 3.7082572e-05            0          400          200 3.9374949e-12 2.3196797e-12 1.6178153e-12 
   14007  0.087617874      600 3.736685e-05            0          400          200 3.9374949e-12 2.3196797e-12 1.6178153e-12 
Loop time of 0.0876367 on 4 procs for 2000 steps with 600 atoms

100.0% CPU use with 4 MPI tasks x no OpenMP threads
timestep 1440
fix_modify k1 demflag 0
fix_modify d1 demflag 0
fix_modify vf1 demflag 0
Step CPU Atoms c_myHeight c_myNtype[1] c_myNtype[2] c_myNtype[3] c_myMass[1] c_myMass[2] c_myMass[3] 
   14007            0      600 3.736685e-05            0          400          200 3.9374949e-12 2.3196797e-12 1.6178153e-12 
number of iterations: 1509 
maxz = 5.282907e-05 
S-sub-bulk = 2.380188e-02
S-sub-base = 2.406738e-02
S-nh4-bulk = 2.247381e-03
S-nh4-base = 2.231421e-03

   14008  0.068586111      800 3.8381362e-05            0          400          400 4.1523643e-12 2.499394e-12 1.6529703e-12 
Loop time of 0.0685992 on 4 procs for 1 steps with 800 atoms

100.0% CPU use with 4 MPI tasks x no OpenMP threads
fix_modify k1 demflag 1
fix_modify d1 demflag 1
fix_modify vf1 demflag 1
timestep 0.1
run 2000 pre no post no
Step CPU Atoms c_myHeight c_myNtype[1] c_myNtype[2] c_myNtype[3] c_myMass[1] c_myMass[2] c_myMass[3] 
   14008            0      800 3.8381362e-05            0          400          400 4.1523643e-12 2.499394e-12 1.6529703e-12 
   14014 0.00089716911      800 3.8845251e-05            0          400          400 4.1523643e-12 2.499394e-12 1.6529703e-12 
   15015  0.068006039      800 4.1247714e-05            0          400          400 4.1523643e-12 2.499394e-12 1.6529703e-12 
   16008   0.10818315      800  4.12981e-05            0          400          400 4.1523643e-12 2.499394e-12 1.6529703e-12 
Loop time of 0.108202 on 4 procs for 2000 steps with 800 atoms

100.0% CPU use with 4 MPI tasks x no OpenMP threads
timestep 1440
fix_modify k1 demflag 0
fix_modify d1 demflag 0
fix_modify vf1 demflag 0
Step CPU Atoms c_myHeight c_myNtype[1] c_myNtype[2] c_myNtype[3] c_myMass[1] c_myMass[2] c_myMass[3] 
   16008            0      800  4.12981e-05            0          400          400 4.1523643e-12 2.499394e-12 1.6529703e-12 
number of iterations: 1956 
maxz = 5.386344e-05 
S-sub-bulk = 2.323915e-02
S-sub-base = 2.339828e-02
S-nh4-bulk = 2.162917e-03
S-nh4-base = 2.079827e-03

   16009   0.11457992      800 4.1362513e-05            0          400          400 4.3801207e-12 2.6921233e-12 1.6879974e-12 
Loop time of 0.114597 on 4 procs for 1 steps with 800 atoms

100.0% CPU use with 4 MPI tasks x no OpenMP threads
fix_modify k1 demflag 1
fix_modify d1 demflag 1
fix_modify vf1 demflag 1
timestep 0.1
run 2000 pre no post no
Step CPU Atoms c_myHeight c_myNtype[1] c_myNtype[2] c_myNtype[3] c_myMass[1] c_myMass[2] c_myMass[3] 
   16009            0      800 4.1362513e-05            0          400          400 4.3801207e-12 2.6921233e-12 1.6879974e-12 
   16016 0.0011060238      800 4.1406794e-05            0          400          400 4.3801207e-12 2.6921233e-12 1.6879974e-12 
   17017  0.069219112      800 4.2273104e-05            0          400          400 4.3801207e-12 2.6921233e-12 1.6879974e-12 
   18009   0.11951709      800 4.2283918e-05            0          400          400 4.3801207e-12 2.6921233e-12 1.6879974e-12 
Loop time of 0.119538 on 4 procs for 2000 steps with 800 atoms

100.0% CPU use with 4 MPI tasks x no OpenMP threads
timestep 1440
fix_modify k1 demflag 0
fix_modify d1 demflag 0
fix_modify vf1 demflag 0
Step CPU Atoms c_myHeight c_myNtype[1] c_myNtype[2] c_myNtype[3] c_myMass[1] c_myMass[2] c_myMass[3] 
   18009            0      800 4.2283918e-05            0          400          400 4.3801207e-12 2.6921233e-12 1.6879974e-12 
number of iterations: 1564 
maxz = 5.454844e-05 
S-sub-bulk = 2.266381e-02
S-sub-base = 2.285576e-02
S-nh4-bulk = 2.092347e-03
S-nh4-base = 1.996419e-03

   18010  0.075577974      818 4.2479218e-05            0          418          400 4.6221864e-12 2.8989369e-12 1.7232495e-12 
Loop time of 0.0755932 on 4 procs for 1 steps with 818 atoms

100.0% CPU use with 4 MPI tasks x no OpenMP threads
fix_modify k1 demflag 1
fix_modify d1 demflag 1
fix_modify vf1 demflag 1
timestep 0.1
run 2000 pre no post no
Step CPU Atoms c_myHeight c_myNtype[1] c_myNtype[2] c_myNtype[3] c_myMass[1] c_myMass[2] c_myMass[3] 
   18010            0      818 4.2479218e-05            0          418          400 4.6221864e-12 2.8989369e-12 1.7232495e-12 
   18018 0.0010678768      818 4.2795212e-05            0          418          400 4.6221864e-12 2.8989369e-12 1.7232495e-12 
   19019  0.072394848      818 4.3804597e-05            0          418          400 4.6221864e-12 2.8989369e-12 1.7232495e-12 
   20010   0.12497497      818 4.393635e-05            0          418          400 4.6221864e-12 2.8989369e-12 1.7232495e-12 
Loop time of 0.124995 on 4 procs for 2000 steps with 818 atoms

100.0% CPU use with 4 MPI tasks x no OpenMP threads
timestep 1440
fix_modify k1 demflag 0
fix_modify d1 demflag 0
fix_modify vf1 demflag 0
Step CPU Atoms c_myHeight c_myNtype[1] c_myNtype[2] c_myNtype[3] c_myMass[1] c_myMass[2] c_myMass[3] 
   20010            0      818 4.393635e-05            0          418          400 4.6221864e-12 2.8989369e-12 1.7232495e-12 
number of iterations: 1690 
maxz = 5.672743e-05 
S-sub-bulk = 2.206937e-02
S-sub-base = 2.223552e-02
S-nh4-bulk = 2.030783e-03
S-nh4-base = 1.924804e-03

   20011  0.082324028      919 4.4376939e-05            0          519          400 4.8794424e-12 3.1206737e-12 1.7587687e-12 
Loop time of 0.0823398 on 4 procs for 1 steps with 919 atoms

100.0% CPU use with 4 MPI tasks x no OpenMP threads
fix_modify k1 demflag 1
fix_modify d1 demflag 1
fix_modify vf1 demflag 1
timestep 0.1
run 2000 pre no post no
Step CPU Atoms c_myHeight c_myNtype[1] c_myNtype[2] c_myNtype[3] c_myMass[1] c_myMass[2] c_myMass[3] 
   20011            0      919 4.4376939e-05            0          519          400 4.8794424e-12 3.1206737e-12 1.7587687e-12 
   20020 0.0015180111      919 4.4817429e-05            0          519          400 4.8794424e-12 3.1206737e-12 1.7587687e-12 
   21021  0.082437992      919 4.6650342e-05            0          519          400 4.8794424e-12 3.1206737e-12 1.7587687e-12 
   22011     0.134866      919 4.6735057e-05            0          519          400 4.8794424e-12 3.1206737e-12 1.7587687e-12 
Loop time of 0.134884 on 4 procs for 2000 steps with 919 atoms

100.0% CPU use with 4 MPI tasks x no OpenMP threads
timestep 1440
fix_modify k1 demflag 0
fix_modify d1 demflag 0
fix_modify vf1 demflag 0
Step CPU Atoms c_myHeight c_myNtype[1] c_myNtype[2] c_myNtype[3] c_myMass[1] c_myMass[2] c_myMass[3] 
   22011            0      919 4.6735057e-05            0          519          400 4.8794424e-12 3.1206737e-12 1.7587687e-12 
number of iterations: 1728 
maxz = 6.078091e-05 
S-sub-bulk = 2.144976e-02
S-sub-base = 2.161431e-02
S-nh4-bulk = 1.973595e-03
S-nh4-base = 1.866354e-03

   22012   0.08541584      994 4.7234401e-05            0          594          400 5.152923e-12 3.3582886e-12 1.7946343e-12 
Loop time of 0.085433 on 4 procs for 1 steps with 994 atoms

100.0% CPU use with 4 MPI tasks x no OpenMP threads
fix_modify k1 demflag 1
fix_modify d1 demflag 1
fix_modify vf1 demflag 1
timestep 0.1
run 2000 pre no post no
Step CPU Atoms c_myHeight c_myNtype[1] c_myNtype[2] c_myNtype[3] c_myMass[1] c_myMass[2] c_myMass[3] 
   22012            0      994 4.7234401e-05            0          594          400 5.152923e-12 3.3582886e-12 1.7946343e-12 
   22022 0.0017240047      994 4.7640699e-05            0          594          400 5.152923e-12 3.3582886e-12 1.7946343e-12 
   23023  0.096229076      994 4.9186115e-05            0          594          400 5.152923e-12 3.3582886e-12 1.7946343e-12 
   24012   0.15976501      994 4.9180148e-05            0          594          400 5.152923e-12 3.3582886e-12 1.7946343e-12 
Loop time of 0.159786 on 4 procs for 2000 steps with 994 atoms

100.0% CPU use with 4 MPI tasks x no OpenMP threads
timestep 1440
fix_modify k1 demflag 0
fix_modify d1 demflag 0
fix_modify vf1 demflag 0
Step CPU Atoms c_myHeight c_myNtype[1] c_myNtype[2] c_myNtype[3] c_myMass[1] c_myMass[2] c_myMass[3] 
   24012            0      994 4.9180148e-05            0          594          400 5.152923e-12 3.3582886e-12 1.7946343e-12 
number of iterations: 2293 
maxz = 6.334160e-05 
S-sub-bulk = 2.080515e-02
S-sub-base = 2.083312e-02
S-nh4-bulk = 1.930283e-03
S-nh4-base = 1.771109e-03

   24013   0.12597108     1037 4.9443461e-05            0          637          400 5.4427696e-12 3.6123037e-12 1.8304659e-12 
Loop time of 0.125988 on 4 procs for 1 steps with 1037 atoms

100.0% CPU use with 4 MPI tasks x no OpenMP threads
fix_modify k1 demflag 1
fix_modify d1 demflag 1
fix_modify vf1 demflag 1
timestep 0.1
run 2000 pre no post no
Step CPU Atoms c_myHeight c_myNtype[1] c_myNtype[2] c_myNtype[3] c_myMass[1] c_myMass[2] c_myMass[3] 
   24013            0     1037 4.9443461e-05            0          637          400 5.4427696e-12 3.6123037e-12 1.8304659e-12 
   24024 0.0019440651     1037 4.9829505e-05            0          637          400 5.4427696e-12 3.6123037e-12 1.8304659e-12 
   25025   0.10796094     1037 5.1313084e-05            0          637          400 5.4427696e-12 3.6123037e-12 1.8304659e-12 
   26013   0.17401695     1037 5.143537e-05            0          637          400 5.4427696e-12 3.6123037e-12 1.8304659e-12 
Loop time of 0.174037 on 4 procs for 2000 steps with 1037 atoms

100.0% CPU use with 4 MPI tasks x no OpenMP threads
timestep 1440
fix_modify k1 demflag 0
fix_modify d1 demflag 0
fix_modify vf1 demflag 0
Step CPU Atoms c_myHeight c_myNtype[1] c_myNtype[2] c_myNtype[3] c_myMass[1] c_myMass[2] c_myMass[3] 
   26013            0     1037 5.143537e-05            0          637          400 5.4427696e-12 3.6123037e-12 1.8304659e-12 
number of iterations: 2172 
maxz = 6.542467e-05 
S-sub-bulk = 2.012793e-02
S-sub-base = 2.014024e-02
S-nh4-bulk = 1.886520e-03
S-nh4-base = 1.723047e-03

   26014   0.11805487     1115 5.2077123e-05            0          715          400 5.7505966e-12 3.8839537e-12 1.8666428e-12 
Loop time of 0.11807 on 4 procs for 1 steps with 1115 atoms

99.9% CPU use with 4 MPI tasks x no OpenMP threads
fix_modify k1 demflag 1
fix_modify d1 demflag 1
fix_modify vf1 demflag 1
timestep 0.1
run 2000 pre no post no
Step CPU Atoms c_myHeight c_myNtype[1] c_myNtype[2] c_myNtype[3] c_myMass[1] c_myMass[2] c_myMass[3] 
   26014            0     1115 5.2077123e-05            0          715          400 5.7505966e-12 3.8839537e-12 1.8666428e-12 
   26026 0.0024330616     1115 5.2596773e-05            0          715          400 5.7505966e-12 3.8839537e-12 1.8666428e-12 
   27027   0.11858392     1115 5.4480044e-05            0          715          400 5.7505966e-12 3.8839537e-12 1.8666428e-12 
   28014   0.20280004     1115 5.4828647e-05            0          715          400 5.7505966e-12 3.8839537e-12 1.8666428e-12 
Loop time of 0.202821 on 4 procs for 2000 steps with 1115 atoms

100.0% CPU use with 4 MPI tasks x no OpenMP threads
timestep 1440
fix_modify k1 demflag 0
fix_modify d1 demflag 0
fix_modify vf1 demflag 0
Step CPU Atoms c_myHeight c_myNtype[1] c_myNtype[2] c_myNtype[3] c_myMass[1] c_myMass[2] c_myMass[3] 
   28014            0     1115 5.4828647e-05            0          715          400 5.7505966e-12 3.8839537e-12 1.8666428e-12 
number of iterations: 2263 
maxz = 6.812027e-05 
S-sub-bulk = 1.941536e-02
S-sub-base = 1.942549e-02
S-nh4-bulk = 1.841419e-03
S-nh4-base = 1.681164e-03

   28015   0.12831092     1178 5.506765e-05            0          778          400 6.0773997e-12 4.1741996e-12 1.9032001e-12 
Loop time of 0.128327 on 4 procs for 1 steps with 1178 atoms

100.0% CPU use with 4 MPI tasks x no OpenMP threads
fix_modify k1 demflag 1
fix_modify d1 demflag 1
fix_modify vf1 demflag 1
timestep 0.1
run 2000 pre no post no
Step CPU Atoms c_myHeight c_myNtype[1] c_myNtype[2] c_myNtype[3] c_myMass[1] c_myMass[2] c_myMass[3] 
   28015            0     1178 5.506765e-05            0          778          400 6.0773997e-12 4.1741996e-12 1.9032001e-12 
   28028 0.0026202202     1178 5.5625168e-05            0          778          400 6.0773997e-12 4.1741996e-12 1.9032001e-12 
   29029   0.12568402     1178 5.7187304e-05            0          778          400 6.0773997e-12 4.1741996e-12 1.9032001e-12 
   30015   0.21191812     1178 5.7566532e-05            0          778          400 6.0773997e-12 4.1741996e-12 1.9032001e-12 
Loop time of 0.211938 on 4 procs for 2000 steps with 1178 atoms

100.0% CPU use with 4 MPI tasks x no OpenMP threads
timestep 1440
fix_modify k1 demflag 0
fix_modify d1 demflag 0
fix_modify vf1 demflag 0
Step CPU Atoms c_myHeight c_myNtype[1] c_myNtype[2] c_myNtype[3] c_myMass[1] c_myMass[2] c_myMass[3] 
   30015            0     1178 5.7566532e-05            0          778          400 6.0773997e-12 4.1741996e-12 1.9032001e-12 
number of iterations: 2387 
maxz = 6.991480e-05 
S-sub-bulk = 1.866626e-02
S-sub-base = 1.866862e-02
S-nh4-bulk = 1.795474e-03
S-nh4-base = 1.640487e-03

   30016   0.13708782     1200 5.7762082e-05            0          800          400 6.4240537e-12 4.4839221e-12 1.9401317e-12 
Loop time of 0.137102 on 4 procs for 1 steps with 1200 atoms

100.0% CPU use with 4 MPI tasks x no OpenMP threads
fix_modify k1 demflag 1
fix_modify d1 demflag 1
fix_modify vf1 demflag 1
timestep 0.1
run 2000 pre no post no
Step CPU Atoms c_myHeight c_myNtype[1] c_myNtype[2] c_myNtype[3] c_myMass[1] c_myMass[2] c_myMass[3] 
   30016            0     1200 5.7762082e-05            0          800          400 6.4240537e-12 4.4839221e-12 1.9401317e-12 
   30030 0.0028169155     1200 5.829514e-05            0          800          400 6.4240537e-12 4.4839221e-12 1.9401317e-12 
   31031   0.12232709     1200 5.9673883e-05            0          800          400 6.4240537e-12 4.4839221e-12 1.9401317e-12 
   32016   0.21224093     1200 6.0071371e-05            0          800          400 6.4240537e-12 4.4839221e-12 1.9401317e-12 
Loop time of 0.212261 on 4 procs for 2000 steps with 1200 atoms

100.0% CPU use with 4 MPI tasks x no OpenMP threads
timestep 1440
fix_modify k1 demflag 0
fix_modify d1 demflag 0
fix_modify vf1 demflag 0
Step CPU Atoms c_myHeight c_myNtype[1] c_myNtype[2] c_myNtype[3] c_myMass[1] c_myMass[2] c_myMass[3] 
   32016            0     1200 6.0071371e-05            0          800          400 6.4240537e-12 4.4839221e-12 1.9401317e-12 
number of iterations: 2511 
maxz = 7.305073e-05 
S-sub-bulk = 1.788029e-02
S-sub-base = 1.786994e-02
S-nh4-bulk = 1.749734e-03
S-nh4-base = 1.597779e-03

   32017   0.15056586     1201 6.0209499e-05            0          801          400 6.7913507e-12 4.8139436e-12 1.977407e-12 
Loop time of 0.150582 on 4 procs for 1 steps with 1201 atoms

100.0% CPU use with 4 MPI tasks x no OpenMP threads
fix_modify k1 demflag 1
fix_modify d1 demflag 1
fix_modify vf1 demflag 1
timestep 0.1
run 2000 pre no post no
Step CPU Atoms c_myHeight c_myNtype[1] c_myNtype[2] c_myNtype[3] c_myMass[1] c_myMass[2] c_myMass[3] 
   32017            0     1201 6.0209499e-05            0          801          400 6.7913507e-12 4.8139436e-12 1.977407e-12 
   32032 0.0032429695     1201 6.0474865e-05            0          801          400 6.7913507e-12 4.8139436e-12 1.977407e-12 
   33033   0.12304688     1201 6.1689718e-05            0          801          400 6.7913507e-12 4.8139436e-12 1.977407e-12 
   34017    0.2184689     1201 6.2491694e-05            0          801          400 6.7913507e-12 4.8139436e-12 1.977407e-12 
Loop time of 0.218488 on 4 procs for 2000 steps with 1201 atoms

100.0% CPU use with 4 MPI tasks x no OpenMP threads
timestep 1440
fix_modify k1 demflag 0
fix_modify d1 demflag 0
fix_modify vf1 demflag 0
Step CPU Atoms c_myHeight c_myNtype[1] c_myNtype[2] c_myNtype[3] c_myMass[1] c_myMass[2] c_myMass[3] 
   34017            0     1201 6.2491694e-05            0          801          400 6.7913507e-12 4.8139436e-12 1.977407e-12 
number of iterations: 3380 
maxz = 7.585138e-05 
S-sub-bulk = 1.706959e-02
S-sub-base = 1.682152e-02
S-nh4-bulk = 1.719217e-03
S-nh4-base = 1.511998e-03

   34018   0.20571208     1233 6.2707966e-05            0          833          400 7.1784132e-12 5.1639255e-12 2.0144876e-12 
Loop time of 0.205729 on 4 procs for 1 steps with 1233 atoms

100.0% CPU use with 4 MPI tasks x no OpenMP threads
fix_modify k1 demflag 1
fix_modify d1 demflag 1
fix_modify vf1 demflag 1
timestep 0.1
run 2000 pre no post no
Step CPU Atoms c_myHeight c_myNtype[1] c_myNtype[2] c_myNtype[3] c_myMass[1] c_myMass[2] c_myMass[3] 
   34018            0     1233 6.2707966e-05            0          833          400 7.1784132e-12 5.1639255e-12 2.0144876e-12 
   34034 0.0034618378     1233 6.3252132e-05            0          833          400 7.1784132e-12 5.1639255e-12 2.0144876e-12 
   35035   0.13502097     1233 6.4617013e-05            0          833          400 7.1784132e-12 5.1639255e-12 2.0144876e-12 
   36018   0.24239182     1233 6.5154306e-05            0          833          400 7.1784132e-12 5.1639255e-12 2.0144876e-12 
Loop time of 0.242412 on 4 procs for 2000 steps with 1233 atoms

99.6% CPU use with 4 MPI tasks x no OpenMP threads
timestep 1440
fix_modify k1 demflag 0
fix_modify d1 demflag 0
fix_modify vf1 demflag 0
Step CPU Atoms c_myHeight c_myNtype[1] c_myNtype[2] c_myNtype[3] c_myMass[1] c_myMass[2] c_myMass[3] 
   36018            0     1233 6.5154306e-05            0          833          400 7.1784132e-12 5.1639255e-12 2.0144876e-12 
number of iterations: 3168 
maxz = 7.740089e-05 
S-sub-bulk = 1.622403e-02
S-sub-base = 1.593821e-02
S-nh4-bulk = 1.683164e-03
S-nh4-base = 1.480369e-03

   36019   0.19946885     1279 6.5350785e-05            0          879          400 7.5872748e-12 5.535304e-12 2.0519708e-12 
Loop time of 0.199484 on 4 procs for 1 steps with 1279 atoms

100.0% CPU use with 4 MPI tasks x no OpenMP threads
fix_modify k1 demflag 1
fix_modify d1 demflag 1
fix_modify vf1 demflag 1
timestep 0.1
run 2000 pre no post no
Step CPU Atoms c_myHeight c_myNtype[1] c_myNtype[2] c_myNtype[3] c_myMass[1] c_myMass[2] c_myMass[3] 
   36019            0     1279 6.5350785e-05            0          879          400 7.5872748e-12 5.535304e-12 2.0519708e-12 
   36036 0.0038611889     1279 6.615292e-05            0          879          400 7.5872748e-12 5.535304e-12 2.0519708e-12 
   37037   0.15490222     1279 6.7675405e-05            0          879          400 7.5872748e-12 5.535304e-12 2.0519708e-12 
   38019   0.28175616     1279 6.8180733e-05            0          879          400 7.5872748e-12 5.535304e-12 2.0519708e-12 
Loop time of 0.281777 on 4 procs for 2000 steps with 1279 atoms

99.9% CPU use with 4 MPI tasks x no OpenMP threads
timestep 1440
fix_modify k1 demflag 0
fix_modify d1 demflag 0
fix_modify vf1 demflag 0
Step CPU Atoms c_myHeight c_myNtype[1] c_myNtype[2] c_myNtype[3] c_myMass[1] c_myMass[2] c_myMass[3] 
   38019            0     1279 6.8180733e-05            0          879          400 7.5872748e-12 5.535304e-12 2.0519708e-12 
number of iterations: 3306 
maxz = 7.981461e-05 
S-sub-bulk = 1.534554e-02
S-sub-base = 1.504155e-02
S-nh4-bulk = 1.643423e-03
S-nh4-base = 1.448632e-03

   38020   0.20817208     1356 6.8341403e-05            0          956          400 8.0184749e-12 5.9286332e-12 2.0898417e-12 
Loop time of 0.208184 on 4 procs for 1 steps with 1356 atoms

100.0% CPU use with 4 MPI tasks x no OpenMP threads
fix_modify k1 demflag 1
fix_modify d1 demflag 1
fix_modify vf1 demflag 1
timestep 0.1
run 2000 pre no post no
Step CPU Atoms c_myHeight c_myNtype[1] c_myNtype[2] c_myNtype[3] c_myMass[1] c_myMass[2] c_myMass[3] 
   38020            0     1356 6.8341403e-05            0          956          400 8.0184749e-12 5.9286332e-12 2.0898417e-12 
   38038 0.0046150684     1356 6.9465476e-05            0          956          400 8.0184749e-12 5.9286332e-12 2.0898417e-12 
   39039   0.16356897     1356 7.159082e-05            0          956          400 8.0184749e-12 5.9286332e-12 2.0898417e-12 
   40020    0.2857039     1356 7.2544799e-05            0          956          400 8.0184749e-12 5.9286332e-12 2.0898417e-12 
Loop time of 0.285724 on 4 procs for 2000 steps with 1356 atoms

100.0% CPU use with 4 MPI tasks x no OpenMP threads
timestep 1440
fix_modify k1 demflag 0
fix_modify d1 demflag 0
fix_modify vf1 demflag 0
Step CPU Atoms c_myHeight c_myNtype[1] c_myNtype[2] c_myNtype[3] c_myMass[1] c_myMass[2] c_myMass[3] 
   40020            0     1356 7.2544799e-05            0          956          400 8.0184749e-12 5.9286332e-12 2.0898417e-12 
number of iterations: 3446 
maxz = 8.500483e-05 
S-sub-bulk = 1.443701e-02
S-sub-base = 1.413014e-02
S-nh4-bulk = 1.601215e-03
S-nh4-base = 1.416424e-03

   40021   0.21858907     1457 7.2981867e-05            0         1057          400 8.4724132e-12 6.3443229e-12 2.1280903e-12 
Loop time of 0.218605 on 4 procs for 1 steps with 1457 atoms

99.5% CPU use with 4 MPI tasks x no OpenMP threads
fix_modify k1 demflag 1
fix_modify d1 demflag 1
fix_modify vf1 demflag 1
timestep 0.1
run 2000 pre no post no
Step CPU Atoms c_myHeight c_myNtype[1] c_myNtype[2] c_myNtype[3] c_myMass[1] c_myMass[2] c_myMass[3] 
   40021            0     1457 7.2981867e-05            0         1057          400 8.4724132e-12 6.3443229e-12 2.1280903e-12 
   40040 0.0049211979     1457 7.3692124e-05            0         1057          400 8.4724132e-12 6.3443229e-12 2.1280903e-12 
   41041   0.18158507     1457 7.6016612e-05            0         1057          400 8.4724132e-12 6.3443229e-12 2.1280903e-12 
   42021    0.3278892     1457 7.6670109e-05            0         1057          400 8.4724132e-12 6.3443229e-12 2.1280903e-12 
Loop time of 0.32791 on 4 procs for 2000 steps with 1457 atoms

100.0% CPU use with 4 MPI tasks x no OpenMP threads
timestep 1440
fix_modify k1 demflag 0
fix_modify d1 demflag 0
fix_modify vf1 demflag 0
Step CPU Atoms c_myHeight c_myNtype[1] c_myNtype[2] c_myNtype[3] c_myMass[1] c_myMass[2] c_myMass[3] 
   42021            0     1457 7.6670109e-05            0         1057          400 8.4724132e-12 6.3443229e-12 2.1280903e-12 
number of iterations: 4716 
maxz = 8.800436e-05 
S-sub-bulk = 1.353578e-02
S-sub-base = 1.288323e-02
S-nh4-bulk = 1.577099e-03
S-nh4-base = 1.335397e-03

   42022    0.3550508     1577 7.6844606e-05            0         1177          400 8.9454784e-12 6.7794733e-12 2.1660052e-12 
Loop time of 0.355066 on 4 procs for 1 steps with 1577 atoms

100.0% CPU use with 4 MPI tasks x no OpenMP threads
fix_modify k1 demflag 1
fix_modify d1 demflag 1
fix_modify vf1 demflag 1
timestep 0.1
run 2000 pre no post no
Step CPU Atoms c_myHeight c_myNtype[1] c_myNtype[2] c_myNtype[3] c_myMass[1] c_myMass[2] c_myMass[3] 
   42022            0     1577 7.6844606e-05            0         1177          400 8.9454784e-12 6.7794733e-12 2.1660052e-12 
   42042 0.0055418015     1577 7.7882648e-05            0         1177          400 8.9454784e-12 6.7794733e-12 2.1660052e-12 
   43043   0.19463301     1577 8.0585229e-05            0         1177          400 8.9454784e-12 6.7794733e-12 2.1660052e-12 
   44022   0.34831381     1577 8.1333012e-05            0         1177          400 8.9454784e-12 6.7794733e-12 2.1660052e-12 
Loop time of 0.348335 on 4 procs for 2000 steps with 1577 atoms

100.0% CPU use with 4 MPI tasks x no OpenMP threads
timestep 1440
fix_modify k1 demflag 0
fix_modify d1 demflag 0
fix_modify vf1 demflag 0
Step CPU Atoms c_myHeight c_myNtype[1] c_myNtype[2] c_myNtype[3] c_myMass[1] c_myMass[2] c_myMass[3] 
   44022            0     1577 8.1333012e-05            0         1177          400 8.9454784e-12 6.7794733e-12 2.1660052e-12 
number of iterations: 4223 
maxz = 9.298497e-05 
S-sub-bulk = 1.261513e-02
S-sub-base = 1.195663e-02
S-nh4-bulk = 1.543509e-03
S-nh4-base = 1.314481e-03

   44023   0.29288006     1698 8.1689459e-05            0         1298          400 9.4406799e-12 7.2362795e-12 2.2044004e-12 
Loop time of 0.292895 on 4 procs for 1 steps with 1698 atoms

99.9% CPU use with 4 MPI tasks x no OpenMP threads
fix_modify k1 demflag 1
fix_modify d1 demflag 1
fix_modify vf1 demflag 1
timestep 0.1
run 2000 pre no post no
Step CPU Atoms c_myHeight c_myNtype[1] c_myNtype[2] c_myNtype[3] c_myMass[1] c_myMass[2] c_myMass[3] 
   44023            0     1698 8.1689459e-05            0         1298          400 9.4406799e-12 7.2362795e-12 2.2044004e-12 
   44044 0.0065410137     1698 8.2652489e-05            0         1298          400 9.4406799e-12 7.2362795e-12 2.2044004e-12 
   45045   0.21722889     1698 8.4405028e-05            0         1298          400 9.4406799e-12 7.2362795e-12 2.2044004e-12 
   46023   0.39180589     1698 8.5366217e-05            0         1298          400 9.4406799e-12 7.2362795e-12 2.2044004e-12 
Loop time of 0.391831 on 4 procs for 2000 steps with 1698 atoms

100.0% CPU use with 4 MPI tasks x no OpenMP threads
timestep 1440
fix_modify k1 demflag 0
fix_modify d1 demflag 0
fix_modify vf1 demflag 0
Step CPU Atoms c_myHeight c_myNtype[1] c_myNtype[2] c_myNtype[3] c_myMass[1] c_myMass[2] c_myMass[3] 
   46023            0     1698 8.5366217e-05            0         1298          400 9.4406799e-12 7.2362795e-12 2.2044004e-12 
number of iterations: 5000 
maxz = 9.645149e-05 
S-sub-bulk = 1.172782e-02
S-sub-base = 1.075860e-02
S-nh4-bulk = 1.524027e-03
S-nh4-base = 1.247206e-03

   46024   0.41998386     1807 8.5534487e-05            0         1407          400 9.9526489e-12 7.7101264e-12 2.2425225e-12 
Loop time of 0.42 on 4 procs for 1 steps with 1807 atoms

100.0% CPU use with 4 MPI tasks x no OpenMP threads
fix_modify k1 demflag 1
fix_modify d1 demflag 1
fix_modify vf1 demflag 1
timestep 0.1
run 2000 pre no post no
Step CPU Atoms c_myHeight c_myNtype[1] c_myNtype[2] c_myNtype[3] c_myMass[1] c_myMass[2] c_myMass[3] 
   46024            0     1807 8.5534487e-05            0         1407          400 9.9526489e-12 7.7101264e-12 2.2425225e-12 
   46046 0.0071280003     1807 8.6355664e-05            0         1407          400 9.9526489e-12 7.7101264e-12 2.2425225e-12 
   47047   0.22885108     1807 8.8484202e-05            0         1407          400 9.9526489e-12 7.7101264e-12 2.2425225e-12 
   48024   0.40764117     1807 8.9528348e-05            0         1407          400 9.9526489e-12 7.7101264e-12 2.2425225e-12 
Loop time of 0.407662 on 4 procs for 2000 steps with 1807 atoms

99.8% CPU use with 4 MPI tasks x no OpenMP threads
timestep 1440
fix_modify k1 demflag 0
fix_modify d1 demflag 0
fix_modify vf1 demflag 0
Step CPU Atoms c_myHeight c_myNtype[1] c_myNtype[2] c_myNtype[3] c_myMass[1] c_myMass[2] c_myMass[3] 
   48024            0     1807 8.9528348e-05            0         1407          400 9.9526489e-12 7.7101264e-12 2.2425225e-12 
number of iterations: 5000 
maxz = 9.926935e-05 
S-sub-bulk = 1.085107e-02
S-sub-base = 9.771952e-03
S-nh4-bulk = 1.493127e-03
S-nh4-base = 1.229654e-03

   48025   0.37284398     1873 8.9674265e-05            0         1473          400 1.0483345e-11 8.2021948e-12  2.28115e-12 
Loop time of 0.372859 on 4 procs for 1 steps with 1873 atoms

100.0% CPU use with 4 MPI tasks x no OpenMP threads
fix_modify k1 demflag 1
fix_modify d1 demflag 1
fix_modify vf1 demflag 1
timestep 0.1
run 2000 pre no post no
Step CPU Atoms c_myHeight c_myNtype[1] c_myNtype[2] c_myNtype[3] c_myMass[1] c_myMass[2] c_myMass[3] 
   48025            0     1873 8.9674265e-05            0         1473          400 1.0483345e-11 8.2021948e-12  2.28115e-12 
   48048 0.0086040497     1873 9.0528887e-05            0         1473          400 1.0483345e-11 8.2021948e-12  2.28115e-12 
   49049   0.23166299     1873 9.2550789e-05            0         1473          400 1.0483345e-11 8.2021948e-12  2.28115e-12 
   50025   0.41948009     1873 9.3140644e-05            0         1473          400 1.0483345e-11 8.2021948e-12  2.28115e-12 
Loop time of 0.419502 on 4 procs for 2000 steps with 1873 atoms

100.0% CPU use with 4 MPI tasks x no OpenMP threads
timestep 1440
fix_modify k1 demflag 0
fix_modify d1 demflag 0
fix_modify vf1 demflag 0
Step CPU Atoms c_myHeight c_myNtype[1] c_myNtype[2] c_myNtype[3] c_myMass[1] c_myMass[2] c_myMass[3] 
   50025            0     1873 9.3140644e-05            0         1473          400 1.0483345e-11 8.2021948e-12  2.28115e-12 
number of iterations: 5000 
maxz = 1.032521e-04 
S-sub-bulk = 9.995966e-03
S-sub-base = 8.855599e-03
S-nh4-bulk = 1.458312e-03
S-nh4-base = 1.204489e-03

   50026   0.37922001     1931 9.3148977e-05            0         1531          400 1.1031174e-11 8.7110524e-12 2.3201212e-12 
Loop time of 0.379233 on 4 procs for 1 steps with 1931 atoms

100.0% CPU use with 4 MPI tasks x no OpenMP threads
fix_modify k1 demflag 1
fix_modify d1 demflag 1
fix_modify vf1 demflag 1
timestep 0.1
run 2000 pre no post no
Step CPU Atoms c_myHeight c_myNtype[1] c_myNtype[2] c_myNtype[3] c_myMass[1] c_myMass[2] c_myMass[3] 
   50026            0     1931 9.3148977e-05            0         1531          400 1.1031174e-11 8.7110524e-12 2.3201212e-12 
   50050 0.0085980892     1931 9.4054768e-05            0         1531          400 1.1031174e-11 8.7110524e-12 2.3201212e-12 
   51051   0.26759315     1931 9.5635428e-05            0         1531          400 1.1031174e-11 8.7110524e-12 2.3201212e-12 
   52026   0.47749496     1931 9.6632211e-05            0         1531          400 1.1031174e-11 8.7110524e-12 2.3201212e-12 
Loop time of 0.477516 on 4 procs for 2000 steps with 1931 atoms

99.8% CPU use with 4 MPI tasks x no OpenMP threads
timestep 1440
fix_modify k1 demflag 0
fix_modify d1 demflag 0
fix_modify vf1 demflag 0
Step CPU Atoms c_myHeight c_myNtype[1] c_myNtype[2] c_myNtype[3] c_myMass[1] c_myMass[2] c_myMass[3] 
   52026            0     1931 9.6632211e-05            0         1531          400 1.1031174e-11 8.7110524e-12 2.3201212e-12 
number of iterations: 5000 
maxz = 1.069532e-04 
S-sub-bulk = 9.235109e-03
S-sub-base = 7.809854e-03
S-nh4-bulk = 1.444004e-03
S-nh4-base = 1.135803e-03

   52027   0.40189099     2008 9.685783e-05            0         1608          400 1.1587814e-11 9.2292132e-12 2.3586004e-12 
Loop time of 0.401906 on 4 procs for 1 steps with 2008 atoms

100.0% CPU use with 4 MPI tasks x no OpenMP threads
fix_modify k1 demflag 1
fix_modify d1 demflag 1
fix_modify vf1 demflag 1
timestep 0.1
run 2000 pre no post no
Step CPU Atoms c_myHeight c_myNtype[1] c_myNtype[2] c_myNtype[3] c_myMass[1] c_myMass[2] c_myMass[3] 
   52027            0     2008 9.685783e-05            0         1608          400 1.1587814e-11 9.2292132e-12 2.3586004e-12 
   52052  0.009196043     2008 9.7807981e-05            0         1608          400 1.1587814e-11 9.2292132e-12 2.3586004e-12 
   53053   0.27962613     2008 0.00010018996            0         1608          400 1.1587814e-11 9.2292132e-12 2.3586004e-12 
   54027   0.49952197     2008 0.00010141373            0         1608          400 1.1587814e-11 9.2292132e-12 2.3586004e-12 
Loop time of 0.499544 on 4 procs for 2000 steps with 2008 atoms

100.0% CPU use with 4 MPI tasks x no OpenMP threads
timestep 1440
fix_modify k1 demflag 0
fix_modify d1 demflag 0
fix_modify vf1 demflag 0
Step CPU Atoms c_myHeight c_myNtype[1] c_myNtype[2] c_myNtype[3] c_myMass[1] c_myMass[2] c_myMass[3] 
   54027            0     2008 0.00010141373            0         1608          400 1.1587814e-11 9.2292132e-12 2.3586004e-12 
number of iterations: 5000 
maxz = 1.153627e-04 
S-sub-bulk = 8.525712e-03
S-sub-base = 6.951942e-03
S-nh4-bulk = 1.416896e-03
S-nh4-base = 1.119384e-03

   54028   0.41664314     2060 0.00010160437            0         1660          400 1.2155845e-11 9.7582612e-12 2.3975842e-12 
Loop time of 0.416659 on 4 procs for 1 steps with 2060 atoms

100.0% CPU use with 4 MPI tasks x no OpenMP threads
fix_modify k1 demflag 1
fix_modify d1 demflag 1
fix_modify vf1 demflag 1
timestep 0.1
run 2000 pre no post no
Step CPU Atoms c_myHeight c_myNtype[1] c_myNtype[2] c_myNtype[3] c_myMass[1] c_myMass[2] c_myMass[3] 
   54028            0     2060 0.00010160437            0         1660          400 1.2155845e-11 9.7582612e-12 2.3975842e-12 
   54054  0.010113001     2060 0.00010225231            0         1660          400 1.2155845e-11 9.7582612e-12 2.3975842e-12 
   55055     0.277915     2060 0.00010412015            0         1660          400 1.2155845e-11 9.7582612e-12 2.3975842e-12 
   56028   0.50116301     2060 0.00010497496            0         1660          400 1.2155845e-11 9.7582612e-12 2.3975842e-12 
Loop time of 0.501187 on 4 procs for 2000 steps with 2060 atoms

100.0% CPU use with 4 MPI tasks x no OpenMP threads
timestep 1440
fix_modify k1 demflag 0
fix_modify d1 demflag 0
fix_modify vf1 demflag 0
Step CPU Atoms c_myHeight c_myNtype[1] c_myNtype[2] c_myNtype[3] c_myMass[1] c_myMass[2] c_myMass[3] 
   56028            0     2060 0.00010497496            0         1660          400 1.2155845e-11 9.7582612e-12 2.3975842e-12 
number of iterations: 5000 
maxz = 1.171045e-04 
S-sub-bulk = 7.953308e-03
S-sub-base = 6.051675e-03
S-nh4-bulk = 1.406988e-03
S-nh4-base = 1.062149e-03

   56029   0.55396414     2138 0.00010514724            0         1738          400 1.2724902e-11 1.0288781e-11 2.4361215e-12 
Loop time of 0.553982 on 4 procs for 1 steps with 2138 atoms

99.2% CPU use with 4 MPI tasks x no OpenMP threads
fix_modify k1 demflag 1
fix_modify d1 demflag 1
fix_modify vf1 demflag 1
timestep 0.1
run 2000 pre no post no
Step CPU Atoms c_myHeight c_myNtype[1] c_myNtype[2] c_myNtype[3] c_myMass[1] c_myMass[2] c_myMass[3] 
   56029            0     2138 0.00010514724            0         1738          400 1.2724902e-11 1.0288781e-11 2.4361215e-12 
   56056  0.012905836     2138 0.00010595955            0         1738          400 1.2724902e-11 1.0288781e-11 2.4361215e-12 
   57057   0.34509182     2138 0.00010782594            0         1738          400 1.2724902e-11 1.0288781e-11 2.4361215e-12 
   58029   0.60634184     2138 0.00010844499            0         1738          400 1.2724902e-11 1.0288781e-11 2.4361215e-12 
Loop time of 0.606363 on 4 procs for 2000 steps with 2138 atoms

99.4% CPU use with 4 MPI tasks x no OpenMP threads
timestep 1440
fix_modify k1 demflag 0
fix_modify d1 demflag 0
fix_modify vf1 demflag 0
Step CPU Atoms c_myHeight c_myNtype[1] c_myNtype[2] c_myNtype[3] c_myMass[1] c_myMass[2] c_myMass[3] 
   58029            0     2138 0.00010844499            0         1738          400 1.2724902e-11 1.0288781e-11 2.4361215e-12 
number of iterations: 5000 
maxz = 1.206895e-04 
S-sub-bulk = 7.451506e-03
S-sub-base = 5.338957e-03
S-nh4-bulk = 1.384946e-03
S-nh4-base = 1.045260e-03

   58030   0.52446699     2215 0.00010879015            0         1815          400 1.3298661e-11 1.0823563e-11 2.4750979e-12 
Loop time of 0.524482 on 4 procs for 1 steps with 2215 atoms

99.8% CPU use with 4 MPI tasks x no OpenMP threads
fix_modify k1 demflag 1
fix_modify d1 demflag 1
fix_modify vf1 demflag 1
timestep 0.1
run 2000 pre no post no
Step CPU Atoms c_myHeight c_myNtype[1] c_myNtype[2] c_myNtype[3] c_myMass[1] c_myMass[2] c_myMass[3] 
   58030            0     2215 0.00010879015            0         1815          400 1.3298661e-11 1.0823563e-11 2.4750979e-12 
   58058  0.013114929     2215 0.00010974858            0         1815          400 1.3298661e-11 1.0823563e-11 2.4750979e-12 
   59059   0.31308293     2215 0.0001112652            0         1815          400 1.3298661e-11 1.0823563e-11 2.4750979e-12 
   60030   0.55935907     2215 0.00011158567            0         1815          400 1.3298661e-11 1.0823563e-11 2.4750979e-12 
Loop time of 0.559381 on 4 procs for 2000 steps with 2215 atoms

99.8% CPU use with 4 MPI tasks x no OpenMP threads
timestep 1440
fix_modify k1 demflag 0
fix_modify d1 demflag 0
fix_modify vf1 demflag 0
Step CPU Atoms c_myHeight c_myNtype[1] c_myNtype[2] c_myNtype[3] c_myMass[1] c_myMass[2] c_myMass[3] 
   60030            0     2215 0.00011158567            0         1815          400 1.3298661e-11 1.0823563e-11 2.4750979e-12 
number of iterations: 5000 
maxz = 1.227173e-04 
S-sub-bulk = 7.108920e-03
S-sub-base = 4.633410e-03
S-nh4-bulk = 1.377526e-03
S-nh4-base = 9.967311e-04

   60031   0.48272896     2319 0.00011187038            0         1919          400 1.3866136e-11 1.1352464e-11 2.5136721e-12 
Loop time of 0.482743 on 4 procs for 1 steps with 2319 atoms

99.8% CPU use with 4 MPI tasks x no OpenMP threads
fix_modify k1 demflag 1
fix_modify d1 demflag 1
fix_modify vf1 demflag 1
timestep 0.1
run 2000 pre no post no
Step CPU Atoms c_myHeight c_myNtype[1] c_myNtype[2] c_myNtype[3] c_myMass[1] c_myMass[2] c_myMass[3] 
   60031            0     2319 0.00011187038            0         1919          400 1.3866136e-11 1.1352464e-11 2.5136721e-12 
   60060  0.013872862     2319 0.00011314589            0         1919          400 1.3866136e-11 1.1352464e-11 2.5136721e-12 
   61061      0.36605     2319 0.00011570691            0         1919          400 1.3866136e-11 1.1352464e-11 2.5136721e-12 
   62031   0.65207291     2319 0.00011616084            0         1919          400 1.3866136e-11 1.1352464e-11 2.5136721e-12 
Loop time of 0.652095 on 4 procs for 2000 steps with 2319 atoms

99.5% CPU use with 4 MPI tasks x no OpenMP threads
timestep 1440
fix_modify k1 demflag 0
fix_modify d1 demflag 0
fix_modify vf1 demflag 0
Step CPU Atoms c_myHeight c_myNtype[1] c_myNtype[2] c_myNtype[3] c_myMass[1] c_myMass[2] c_myMass[3] 
   62031            0     2319 0.00011616084            0         1919          400 1.3866136e-11 1.1352464e-11 2.5136721e-12 
number of iterations: 5000 
maxz = 1.294389e-04 
S-sub-bulk = 6.798655e-03
S-sub-base = 4.121873e-03
S-nh4-bulk = 1.358520e-03
S-nh4-base = 9.795678e-04

   62032   0.54250002     2443 0.00011642957            0         2043          400 1.443612e-11 1.1883478e-11 2.5526422e-12 
Loop time of 0.542515 on 4 procs for 1 steps with 2443 atoms

99.6% CPU use with 4 MPI tasks x no OpenMP threads
fix_modify k1 demflag 1
fix_modify d1 demflag 1
fix_modify vf1 demflag 1
timestep 0.1
run 2000 pre no post no
Step CPU Atoms c_myHeight c_myNtype[1] c_myNtype[2] c_myNtype[3] c_myMass[1] c_myMass[2] c_myMass[3] 
   62032            0     2443 0.00011642957            0         2043          400 1.443612e-11 1.1883478e-11 2.5526422e-12 
   62062  0.015004873     2443 0.00011769495            0         2043          400 1.443612e-11 1.1883478e-11 2.5526422e-12 
   63063   0.37566495     2443 0.0001202438            0         2043          400 1.443612e-11 1.1883478e-11 2.5526422e-12 
   64032   0.67811799     2443 0.00012063421            0         2043          400 1.443612e-11 1.1883478e-11 2.5526422e-12 
Loop time of 0.67814 on 4 procs for 2000 steps with 2443 atoms

99.8% CPU use with 4 MPI tasks x no OpenMP threads
timestep 1440
fix_modify k1 demflag 0
fix_modify d1 demflag 0
fix_modify vf1 demflag 0
Step CPU Atoms c_myHeight c_myNtype[1] c_myNtype[2] c_myNtype[3] c_myMass[1] c_myMass[2] c_myMass[3] 
   64032            0     2443 0.00012063421            0         2043          400 1.443612e-11 1.1883478e-11 2.5526422e-12 
number of iterations: 5000 
maxz = 1.306376e-04 
S-sub-bulk = 6.466666e-03
S-sub-base = 3.767051e-03
S-nh4-bulk = 1.330218e-03
S-nh4-base = 9.658974e-04

   64033   0.53700399     2551 0.00012087152            0         2151          400 1.5012912e-11 1.2420878e-11 2.5920346e-12 
Loop time of 0.537022 on 4 procs for 1 steps with 2551 atoms

99.7% CPU use with 4 MPI tasks x no OpenMP threads
fix_modify k1 demflag 1
fix_modify d1 demflag 1
fix_modify vf1 demflag 1
timestep 0.1
run 2000 pre no post no
Step CPU Atoms c_myHeight c_myNtype[1] c_myNtype[2] c_myNtype[3] c_myMass[1] c_myMass[2] c_myMass[3] 
   64033            0     2551 0.00012087152            0         2151          400 1.5012912e-11 1.2420878e-11 2.5920346e-12 
   64064  0.019250154     2551 0.00012191124            0         2151          400 1.5012912e-11 1.2420878e-11 2.5920346e-12 
   65065   0.46342516     2551 0.00012355649            0         2151          400 1.5012912e-11 1.2420878e-11 2.5920346e-12 
   66033   0.84162116     2551 0.00012430586            0         2151          400 1.5012912e-11 1.2420878e-11 2.5920346e-12 
Loop time of 0.841651 on 4 procs for 2000 steps with 2551 atoms

99.5% CPU use with 4 MPI tasks x no OpenMP threads
timestep 1440
fix_modify k1 demflag 0
fix_modify d1 demflag 0
fix_modify vf1 demflag 0
Step CPU Atoms c_myHeight c_myNtype[1] c_myNtype[2] c_myNtype[3] c_myMass[1] c_myMass[2] c_myMass[3] 
   66033            0     2551 0.00012430586            0         2151          400 1.5012912e-11 1.2420878e-11 2.5920346e-12 
number of iterations: 5000 
maxz = 1.332401e-04 
S-sub-bulk = 6.295080e-03
S-sub-base = 3.326110e-03
S-nh4-bulk = 1.321403e-03
S-nh4-base = 9.181881e-04

   66034   0.59245181     2681 0.00012443343            0         2281          400 1.5578906e-11 1.2947998e-11 2.630908e-12 
Loop time of 0.592465 on 4 procs for 1 steps with 2681 atoms

99.7% CPU use with 4 MPI tasks x no OpenMP threads
fix_modify k1 demflag 1
fix_modify d1 demflag 1
fix_modify vf1 demflag 1
timestep 0.1
run 2000 pre no post no
Step CPU Atoms c_myHeight c_myNtype[1] c_myNtype[2] c_myNtype[3] c_myMass[1] c_myMass[2] c_myMass[3] 
   66034            0     2681 0.00012443343            0         2281          400 1.5578906e-11 1.2947998e-11 2.630908e-12 
   66066  0.017191887     2681 0.00012561277            0         2281          400 1.5578906e-11 1.2947998e-11 2.630908e-12 
   67067   0.45364785     2681  0.000127459            0         2281          400 1.5578906e-11 1.2947998e-11 2.630908e-12 
   68034   0.80061793     2681 0.00012847308            0         2281          400 1.5578906e-11 1.2947998e-11 2.630908e-12 
Loop time of 0.800639 on 4 procs for 2000 steps with 2681 atoms

99.7% CPU use with 4 MPI tasks x no OpenMP threads
timestep 1440
fix_modify k1 demflag 0
fix_modify d1 demflag 0
fix_modify vf1 demflag 0
Step CPU Atoms c_myHeight c_myNtype[1] c_myNtype[2] c_myNtype[3] c_myMass[1] c_myMass[2] c_myMass[3] 
   68034            0     2681 0.00012847308            0         2281          400 1.5578906e-11 1.2947998e-11 2.630908e-12 
number of iterations: 5000 
maxz = 1.366476e-04 
S-sub-bulk = 6.105087e-03
S-sub-base = 3.012335e-03
S-nh4-bulk = 1.303524e-03
S-nh4-base = 8.982834e-04

   68035   0.55228591     2809 0.0001285416            0         2408          401 1.6147835e-11 1.3477736e-11 2.6700991e-12 
Loop time of 0.5523 on 4 procs for 1 steps with 2809 atoms

99.6% CPU use with 4 MPI tasks x no OpenMP threads
fix_modify k1 demflag 1
fix_modify d1 demflag 1
fix_modify vf1 demflag 1
timestep 0.1
run 2000 pre no post no
Step CPU Atoms c_myHeight c_myNtype[1] c_myNtype[2] c_myNtype[3] c_myMass[1] c_myMass[2] c_myMass[3] 
   68035            0     2809 0.0001285416            0         2408          401 1.6147835e-11 1.3477736e-11 2.6700991e-12 
   68068  0.020354033     2809 0.00012969246            0         2408          401 1.6147835e-11 1.3477736e-11 2.6700991e-12 
   69069   0.43682909     2809 0.0001318796            0         2408          401 1.6147835e-11 1.3477736e-11 2.6700991e-12 
   70035   0.84477401     2809 0.00013231644            0         2408          401 1.6147835e-11 1.3477736e-11 2.6700991e-12 
Loop time of 0.844805 on 4 procs for 2000 steps with 2809 atoms

100.0% CPU use with 4 MPI tasks x no OpenMP threads
timestep 1440
fix_modify k1 demflag 0
fix_modify d1 demflag 0
fix_modify vf1 demflag 0
Step CPU Atoms c_myHeight c_myNtype[1] c_myNtype[2] c_myNtype[3] c_myMass[1] c_myMass[2] c_myMass[3] 
   70035            0     2809 0.00013231644            0         2408          401 1.6147835e-11 1.3477736e-11 2.6700991e-12 
number of iterations: 5000 
maxz = 1.408693e-04 
S-sub-bulk = 5.853846e-03
S-sub-base = 2.803090e-03
S-nh4-bulk = 1.276917e-03
S-nh4-base = 8.848392e-04

   70036   0.70646405     2928 0.00013241665            0         2517          411 1.672426e-11 1.4014579e-11 2.7096805e-12 
Loop time of 0.706481 on 4 procs for 1 steps with 2928 atoms

100.0% CPU use with 4 MPI tasks x no OpenMP threads
fix_modify k1 demflag 1
fix_modify d1 demflag 1
fix_modify vf1 demflag 1
timestep 0.1
run 2000 pre no post no
Step CPU Atoms c_myHeight c_myNtype[1] c_myNtype[2] c_myNtype[3] c_myMass[1] c_myMass[2] c_myMass[3] 
   70036            0     2928 0.00013241665            0         2517          411 1.672426e-11 1.4014579e-11 2.7096805e-12 
   70070  0.026660919     2928 0.00013370813            0         2517          411 1.672426e-11 1.4014579e-11 2.7096805e-12 
   71071   0.54693699     2928 0.00013602056            0         2517          411 1.672426e-11 1.4014579e-11 2.7096805e-12 
   72036   0.94679093     2928 0.00013682222            0         2517          411 1.672426e-11 1.4014579e-11 2.7096805e-12 
Loop time of 0.946814 on 4 procs for 2000 steps with 2928 atoms

99.8% CPU use with 4 MPI tasks x no OpenMP threads
timestep 1440
fix_modify k1 demflag 0
fix_modify d1 demflag 0
fix_modify vf1 demflag 0
Step CPU Atoms c_myHeight c_myNtype[1] c_myNtype[2] c_myNtype[3] c_myMass[1] c_myMass[2] c_myMass[3] 
   72036            0     2928 0.00013682222            0         2517          411 1.672426e-11 1.4014579e-11 2.7096805e-12 
number of iterations: 5000 
maxz = 1.461472e-04 
S-sub-bulk = 5.782145e-03
S-sub-base = 2.500876e-03
S-nh4-bulk = 1.271639e-03
S-nh4-base = 8.415335e-04

   72037   0.55590296     3051 0.00013721406            0         2622          429 1.728597e-11 1.453731e-11 2.7486602e-12 
Loop time of 0.555917 on 4 procs for 1 steps with 3051 atoms

100.0% CPU use with 4 MPI tasks x no OpenMP threads
fix_modify k1 demflag 1
fix_modify d1 demflag 1
fix_modify vf1 demflag 1
timestep 0.1
run 2000 pre no post no
Step CPU Atoms c_myHeight c_myNtype[1] c_myNtype[2] c_myNtype[3] c_myMass[1] c_myMass[2] c_myMass[3] 
   72037            0     3051 0.00013721406            0         2622          429 1.728597e-11 1.453731e-11 2.7486602e-12 
   72072  0.020847082     3051 0.00013837493            0         2622          429 1.728597e-11 1.453731e-11 2.7486602e-12 
   73073   0.45006204     3051 0.00014034797            0         2622          429 1.728597e-11 1.453731e-11 2.7486602e-12 
   74037   0.82626104     3051 0.00014111822            0         2622          429 1.728597e-11 1.453731e-11 2.7486602e-12 
Loop time of 0.826283 on 4 procs for 2000 steps with 3051 atoms

100.0% CPU use with 4 MPI tasks x no OpenMP threads
timestep 1440
fix_modify k1 demflag 0
fix_modify d1 demflag 0
fix_modify vf1 demflag 0
Step CPU Atoms c_myHeight c_myNtype[1] c_myNtype[2] c_myNtype[3] c_myMass[1] c_myMass[2] c_myMass[3] 
   74037            0     3051 0.00014111822            0         2622          429 1.728597e-11 1.453731e-11 2.7486602e-12 
number of iterations: 5000 
maxz = 1.482234e-04 
S-sub-bulk = 5.659412e-03
S-sub-base = 2.286004e-03
S-nh4-bulk = 1.256842e-03
S-nh4-base = 8.215798e-04

   74038   0.59994483     3161 0.00014119452            0         2717          444 1.7851199e-11 1.5063259e-11 2.7879401e-12 
Loop time of 0.599965 on 4 procs for 1 steps with 3161 atoms

100.0% CPU use with 4 MPI tasks x no OpenMP threads
fix_modify k1 demflag 1
fix_modify d1 demflag 1
fix_modify vf1 demflag 1
timestep 0.1
run 2000 pre no post no
Step CPU Atoms c_myHeight c_myNtype[1] c_myNtype[2] c_myNtype[3] c_myMass[1] c_myMass[2] c_myMass[3] 
   74038            0     3161 0.00014119452            0         2717          444 1.7851199e-11 1.5063259e-11 2.7879401e-12 
   74074  0.023391962     3161 0.00014252354            0         2717          444 1.7851199e-11 1.5063259e-11 2.7879401e-12 
   75075   0.54221606     3161 0.00014429217            0         2717          444 1.7851199e-11 1.5063259e-11 2.7879401e-12 
   76038   0.96231699     3161 0.00014470641            0         2717          444 1.7851199e-11 1.5063259e-11 2.7879401e-12 
Loop time of 0.96234 on 4 procs for 2000 steps with 3161 atoms

100.0% CPU use with 4 MPI tasks x no OpenMP threads
timestep 1440
fix_modify k1 demflag 0
fix_modify d1 demflag 0
fix_modify vf1 demflag 0
Step CPU Atoms c_myHeight c_myNtype[1] c_myNtype[2] c_myNtype[3] c_myMass[1] c_myMass[2] c_myMass[3] 
   76038            0     3161 0.00014470641            0         2717          444 1.7851199e-11 1.5063259e-11 2.7879401e-12 
number of iterations: 4367 
maxz = 1.522451e-04 
S-sub-bulk = 5.435989e-03
S-sub-base = 2.165988e-03
S-nh4-bulk = 1.233361e-03
S-nh4-base = 8.099503e-04

   76039   0.48489308     3261 0.00014488616            0         2810          451 1.8425956e-11 1.5598377e-11 2.8275795e-12 
Loop time of 0.484907 on 4 procs for 1 steps with 3261 atoms

100.0% CPU use with 4 MPI tasks x no OpenMP threads
fix_modify k1 demflag 1
fix_modify d1 demflag 1
fix_modify vf1 demflag 1
timestep 0.1
run 2000 pre no post no
Step CPU Atoms c_myHeight c_myNtype[1] c_myNtype[2] c_myNtype[3] c_myMass[1] c_myMass[2] c_myMass[3] 
   76039            0     3261 0.00014488616            0         2810          451 1.8425956e-11 1.5598377e-11 2.8275795e-12 
   76076  0.023957014     3261 0.00014585161            0         2810          451 1.8425956e-11 1.5598377e-11 2.8275795e-12 
   77077   0.50026202     3261 0.00014728469            0         2810          451 1.8425956e-11 1.5598377e-11 2.8275795e-12 
   78039   0.93646693     3261 0.00014805509            0         2810          451 1.8425956e-11 1.5598377e-11 2.8275795e-12 
Loop time of 0.936494 on 4 procs for 2000 steps with 3261 atoms

99.9% CPU use with 4 MPI tasks x no OpenMP threads
timestep 1440
fix_modify k1 demflag 0
fix_modify d1 demflag 0
fix_modify vf1 demflag 0
Step CPU Atoms c_myHeight c_myNtype[1] c_myNtype[2] c_myNtype[3] c_myMass[1] c_myMass[2] c_myMass[3] 
   78039            0     3261 0.00014805509            0         2810          451 1.8425956e-11 1.5598377e-11 2.8275795e-12 
number of iterations: 5000 
maxz = 1.562797e-04 
S-sub-bulk = 5.464829e-03
S-sub-base = 1.930443e-03
S-nh4-bulk = 1.233363e-03
S-nh4-base = 7.698526e-04

   78040   0.57874393     3367 0.00014816294            0         2906          461 1.8978338e-11 1.6111827e-11 2.8665103e-12 
Loop time of 0.578758 on 4 procs for 1 steps with 3367 atoms

100.0% CPU use with 4 MPI tasks x no OpenMP threads
fix_modify k1 demflag 1
fix_modify d1 demflag 1
fix_modify vf1 demflag 1
timestep 0.1
run 2000 pre no post no
Step CPU Atoms c_myHeight c_myNtype[1] c_myNtype[2] c_myNtype[3] c_myMass[1] c_myMass[2] c_myMass[3] 
   78040            0     3367 0.00014816294            0         2906          461 1.8978338e-11 1.6111827e-11 2.8665103e-12 
   78078  0.025763035     3367 0.00014923643            0         2906          461 1.8978338e-11 1.6111827e-11 2.8665103e-12 
   79079   0.54098105     3367 0.00015061922            0         2906          461 1.8978338e-11 1.6111827e-11 2.8665103e-12 
   80040   0.97792697     3367 0.00015111522            0         2906          461 1.8978338e-11 1.6111827e-11 2.8665103e-12 
Loop time of 0.977953 on 4 procs for 2000 steps with 3367 atoms

100.0% CPU use with 4 MPI tasks x no OpenMP threads
timestep 1440
fix_modify k1 demflag 0
fix_modify d1 demflag 0
fix_modify vf1 demflag 0
Step CPU Atoms c_myHeight c_myNtype[1] c_myNtype[2] c_myNtype[3] c_myMass[1] c_myMass[2] c_myMass[3] 
   80040            0     3367 0.00015111522            0         2906          461 1.8978338e-11 1.6111827e-11 2.8665103e-12 
number of iterations: 5000 
maxz = 1.608171e-04 
S-sub-bulk = 5.403077e-03
S-sub-base = 1.772219e-03
S-nh4-bulk = 1.223699e-03
S-nh4-base = 7.512723e-04

   80041   0.76094699     3468 0.00015111163            0         2987          481 1.9535468e-11 1.6629771e-11 2.9056966e-12 
Loop time of 0.760967 on 4 procs for 1 steps with 3468 atoms

99.4% CPU use with 4 MPI tasks x no OpenMP threads
fix_modify k1 demflag 1
fix_modify d1 demflag 1
fix_modify vf1 demflag 1
timestep 0.1
run 2000 pre no post no
Step CPU Atoms c_myHeight c_myNtype[1] c_myNtype[2] c_myNtype[3] c_myMass[1] c_myMass[2] c_myMass[3] 
   80041            0     3468 0.00015111163            0         2987          481 1.9535468e-11 1.6629771e-11 2.9056966e-12 
   80080  0.034705877     3468 0.00015235613            0         2987          481 1.9535468e-11 1.6629771e-11 2.9056966e-12 
   81081   0.67440796     3468 0.00015459606            0         2987          481 1.9535468e-11 1.6629771e-11 2.9056966e-12 
   82041    1.1439748     3468 0.00015572419            0         2987          481 1.9535468e-11 1.6629771e-11 2.9056966e-12 
Loop time of 1.144 on 4 procs for 2000 steps with 3468 atoms

99.8% CPU use with 4 MPI tasks x no OpenMP threads
timestep 1440
fix_modify k1 demflag 0
fix_modify d1 demflag 0
fix_modify vf1 demflag 0
Step CPU Atoms c_myHeight c_myNtype[1] c_myNtype[2] c_myNtype[3] c_myMass[1] c_myMass[2] c_myMass[3] 
   82041            0     3468 0.00015572419            0         2987          481 1.9535468e-11 1.6629771e-11 2.9056966e-12 
number of iterations: 5000 
maxz = 1.642468e-04 
S-sub-bulk = 5.467550e-03
S-sub-base = 1.615361e-03
S-nh4-bulk = 1.227405e-03
S-nh4-base = 7.214044e-04

   82042   0.67558193     3568 0.00015588191            0         3075          493 2.0078414e-11 1.7134007e-11 2.9444071e-12 
Loop time of 0.675596 on 4 procs for 1 steps with 3568 atoms

100.0% CPU use with 4 MPI tasks x no OpenMP threads
fix_modify k1 demflag 1
fix_modify d1 demflag 1
fix_modify vf1 demflag 1
timestep 0.1
run 2000 pre no post no
Step CPU Atoms c_myHeight c_myNtype[1] c_myNtype[2] c_myNtype[3] c_myMass[1] c_myMass[2] c_myMass[3] 
   82042            0     3568 0.00015588191            0         3075          493 2.0078414e-11 1.7134007e-11 2.9444071e-12 
   82082  0.030058146     3568 0.00015696739            0         3075          493 2.0078414e-11 1.7134007e-11 2.9444071e-12 
   83083   0.56434798     3568 0.00015872996            0         3075          493 2.0078414e-11 1.7134007e-11 2.9444071e-12 
   84042     1.001323     3568 0.0001591576            0         3075          493 2.0078414e-11 1.7134007e-11 2.9444071e-12 
Loop time of 1.00135 on 4 procs for 2000 steps with 3568 atoms

99.9% CPU use with 4 MPI tasks x no OpenMP threads
timestep 1440
fix_modify k1 demflag 0
fix_modify d1 demflag 0
fix_modify vf1 demflag 0
Step CPU Atoms c_myHeight c_myNtype[1] c_myNtype[2] c_myNtype[3] c_myMass[1] c_myMass[2] c_myMass[3] 
   84042            0     3568 0.0001591576            0         3075          493 2.0078414e-11 1.7134007e-11 2.9444071e-12 
number of iterations: 3812 
maxz = 1.679789e-04 
S-sub-bulk = 5.378963e-03
S-sub-base = 1.524000e-03
S-nh4-bulk = 1.216556e-03
S-nh4-base = 7.097696e-04

   84043     0.487293     3675 0.00015934058            0         3161          514 2.0631322e-11 1.7647807e-11 2.9835145e-12 
Loop time of 0.487308 on 4 procs for 1 steps with 3675 atoms

99.8% CPU use with 4 MPI tasks x no OpenMP threads
fix_modify k1 demflag 1
fix_modify d1 demflag 1
fix_modify vf1 demflag 1
timestep 0.1
run 2000 pre no post no
Step CPU Atoms c_myHeight c_myNtype[1] c_myNtype[2] c_myNtype[3] c_myMass[1] c_myMass[2] c_myMass[3] 
   84043            0     3675 0.00015934058            0         3161          514 2.0631322e-11 1.7647807e-11 2.9835145e-12 
   84084  0.031593084     3675 0.00016061045            0         3161          514 2.0631322e-11 1.7647807e-11 2.9835145e-12 
   85085   0.56655598     3675 0.00016207713            0         3161          514 2.0631322e-11 1.7647807e-11 2.9835145e-12 
   86043     1.019906     3675 0.00016256392            0         3161          514 2.0631322e-11 1.7647807e-11 2.9835145e-12 
Loop time of 1.01993 on 4 procs for 2000 steps with 3675 atoms

100.0% CPU use with 4 MPI tasks x no OpenMP threads
timestep 1440
fix_modify k1 demflag 0
fix_modify d1 demflag 0
fix_modify vf1 demflag 0
Step CPU Atoms c_myHeight c_myNtype[1] c_myNtype[2] c_myNtype[3] c_myMass[1] c_myMass[2] c_myMass[3] 
   86043            0     3675 0.00016256392            0         3161          514 2.0631322e-11 1.7647807e-11 2.9835145e-12 
number of iterations: 3424 
maxz = 1.720071e-04 
S-sub-bulk = 5.166427e-03
S-sub-base = 1.471389e-03
S-nh4-bulk = 1.194459e-03
S-nh4-base = 7.024522e-04

   86044   0.43253493     3775 0.00016280384            0         3235          540 2.1195236e-11 1.8172199e-11 3.0230371e-12 
Loop time of 0.432554 on 4 procs for 1 steps with 3775 atoms

100.0% CPU use with 4 MPI tasks x no OpenMP threads
fix_modify k1 demflag 1
fix_modify d1 demflag 1
fix_modify vf1 demflag 1
timestep 0.1
run 2000 pre no post no
Step CPU Atoms c_myHeight c_myNtype[1] c_myNtype[2] c_myNtype[3] c_myMass[1] c_myMass[2] c_myMass[3] 
   86044            0     3775 0.00016280384            0         3235          540 2.1195236e-11 1.8172199e-11 3.0230371e-12 
   86086  0.033946037     3775 0.0001640451            0         3235          540 2.1195236e-11 1.8172199e-11 3.0230371e-12 
   87087   0.60178018     3775 0.00016568149            0         3235          540 2.1195236e-11 1.8172199e-11 3.0230371e-12 
   88044    1.0822492     3775 0.00016654289            0         3235          540 2.1195236e-11 1.8172199e-11 3.0230371e-12 
Loop time of 1.08227 on 4 procs for 2000 steps with 3775 atoms

99.9% CPU use with 4 MPI tasks x no OpenMP threads
timestep 1440
fix_modify k1 demflag 0
fix_modify d1 demflag 0
fix_modify vf1 demflag 0
Step CPU Atoms c_myHeight c_myNtype[1] c_myNtype[2] c_myNtype[3] c_myMass[1] c_myMass[2] c_myMass[3] 
   88044            0     3775 0.00016654289            0         3235          540 2.1195236e-11 1.8172199e-11 3.0230371e-12 
number of iterations: 5000 
maxz = 1.768707e-04 
S-sub-bulk = 5.260756e-03
S-sub-base = 1.319501e-03
S-nh4-bulk = 1.196625e-03
S-nh4-base = 6.702336e-04

   88045    0.6588738     3878 0.00016680235            0         3319          559 2.1731377e-11 1.8669567e-11 3.0618103e-12 
Loop time of 0.658893 on 4 procs for 1 steps with 3878 atoms

100.0% CPU use with 4 MPI tasks x no OpenMP threads
fix_modify k1 demflag 1
fix_modify d1 demflag 1
fix_modify vf1 demflag 1
timestep 0.1
run 2000 pre no post no
Step CPU Atoms c_myHeight c_myNtype[1] c_myNtype[2] c_myNtype[3] c_myMass[1] c_myMass[2] c_myMass[3] 
   88045            0     3878 0.00016680235            0         3319          559 2.1731377e-11 1.8669567e-11 3.0618103e-12 
   88088  0.035751104     3878 0.00016807127            0         3319          559 2.1731377e-11 1.8669567e-11 3.0618103e-12 
   89089   0.62381697     3878 0.00016949682            0         3319          559 2.1731377e-11 1.8669567e-11 3.0618103e-12 
   90045     1.114219     3878 0.00016986271            0         3319          559 2.1731377e-11 1.8669567e-11 3.0618103e-12 
Loop time of 1.11424 on 4 procs for 2000 steps with 3878 atoms

100.0% CPU use with 4 MPI tasks x no OpenMP threads
timestep 1440
fix_modify k1 demflag 0
fix_modify d1 demflag 0
fix_modify vf1 demflag 0
Step CPU Atoms c_myHeight c_myNtype[1] c_myNtype[2] c_myNtype[3] c_myMass[1] c_myMass[2] c_myMass[3] 
   90045            0     3878 0.00016986271            0         3319          559 2.1731377e-11 1.8669567e-11 3.0618103e-12 
number of iterations: 4604 
maxz = 1.786734e-04 
S-sub-bulk = 5.229411e-03
S-sub-base = 1.215720e-03
S-nh4-bulk = 1.190732e-03
S-nh4-base = 6.520350e-04

   90046   0.60808706     3952 0.00017001708            0         3383          569 2.2273965e-11 1.9173204e-11 3.1007613e-12 
Loop time of 0.608101 on 4 procs for 1 steps with 3952 atoms

100.0% CPU use with 4 MPI tasks x no OpenMP threads
fix_modify k1 demflag 1
fix_modify d1 demflag 1
fix_modify vf1 demflag 1
timestep 0.1
run 2000 pre no post no
Step CPU Atoms c_myHeight c_myNtype[1] c_myNtype[2] c_myNtype[3] c_myMass[1] c_myMass[2] c_myMass[3] 
   90046            0     3952 0.00017001708            0         3383          569 2.2273965e-11 1.9173204e-11 3.1007613e-12 
   90090   0.03691411     3952 0.00017099632            0         3383          569 2.2273965e-11 1.9173204e-11 3.1007613e-12 
   91091   0.63031197     3952  0.000172651            0         3383          569 2.2273965e-11 1.9173204e-11 3.1007613e-12 
   92046    1.1361701     3952 0.00017302337            0         3383          569 2.2273965e-11 1.9173204e-11 3.1007613e-12 
Loop time of 1.13619 on 4 procs for 2000 steps with 3952 atoms

100.0% CPU use with 4 MPI tasks x no OpenMP threads
timestep 1440
fix_modify k1 demflag 0
fix_modify d1 demflag 0
fix_modify vf1 demflag 0
Step CPU Atoms c_myHeight c_myNtype[1] c_myNtype[2] c_myNtype[3] c_myMass[1] c_myMass[2] c_myMass[3] 
   92046            0     3952 0.00017302337            0         3383          569 2.2273965e-11 1.9173204e-11 3.1007613e-12 
number of iterations: 1315 
maxz = 1.816145e-04 
S-sub-bulk = 4.995924e-03
S-sub-base = 1.198919e-03
S-nh4-bulk = 1.170512e-03
S-nh4-base = 6.489691e-04

   92047   0.18196797     4042 0.00017316176            0         3459          583 2.283364e-11 1.9693448e-11 3.1401914e-12 
Loop time of 0.181987 on 4 procs for 1 steps with 4042 atoms

99.8% CPU use with 4 MPI tasks x no OpenMP threads
fix_modify k1 demflag 1
fix_modify d1 demflag 1
fix_modify vf1 demflag 1
timestep 0.1
run 2000 pre no post no
Step CPU Atoms c_myHeight c_myNtype[1] c_myNtype[2] c_myNtype[3] c_myMass[1] c_myMass[2] c_myMass[3] 
   92047            0     4042 0.00017316176            0         3459          583 2.283364e-11 1.9693448e-11 3.1401914e-12 
   92092  0.039377928     4042 0.0001743674            0         3459          583 2.283364e-11 1.9693448e-11 3.1401914e-12 
   93093   0.67730093     4042 0.00017603757            0         3459          583 2.283364e-11 1.9693448e-11 3.1401914e-12 
   94047    1.2231991     4042 0.00017655682            0         3459          583 2.283364e-11 1.9693448e-11 3.1401914e-12 
Loop time of 1.22322 on 4 procs for 2000 steps with 4042 atoms

100.0% CPU use with 4 MPI tasks x no OpenMP threads
timestep 1440
fix_modify k1 demflag 0
fix_modify d1 demflag 0
fix_modify vf1 demflag 0
Step CPU Atoms c_myHeight c_myNtype[1] c_myNtype[2] c_myNtype[3] c_myMass[1] c_myMass[2] c_myMass[3] 
   94047            0     4042 0.00017655682            0         3459          583 2.283364e-11 1.9693448e-11 3.1401914e-12 
number of iterations: 5000 
maxz = 1.843094e-04 
S-sub-bulk = 5.149433e-03
S-sub-base = 1.072539e-03
S-nh4-bulk = 1.178168e-03
S-nh4-base = 6.175222e-04

   94048   0.73550296     4148 0.0001767029            0         3556          592 2.3358381e-11 2.0179656e-11 3.178725e-12 
Loop time of 0.735518 on 4 procs for 1 steps with 4148 atoms

100.0% CPU use with 4 MPI tasks x no OpenMP threads
fix_modify k1 demflag 1
fix_modify d1 demflag 1
fix_modify vf1 demflag 1
timestep 0.1
run 2000 pre no post no
Step CPU Atoms c_myHeight c_myNtype[1] c_myNtype[2] c_myNtype[3] c_myMass[1] c_myMass[2] c_myMass[3] 
   94048            0     4148 0.0001767029            0         3556          592 2.3358381e-11 2.0179656e-11 3.178725e-12 
   94094  0.042078018     4148 0.00017796379            0         3556          592 2.3358381e-11 2.0179656e-11 3.178725e-12 
   95095   0.71911907     4148 0.00017959267            0         3556          592 2.3358381e-11 2.0179656e-11 3.178725e-12 
   96048     1.222003     4148 0.00017991991            0         3556          592 2.3358381e-11 2.0179656e-11 3.178725e-12 
Loop time of 1.22203 on 4 procs for 2000 steps with 4148 atoms

100.0% CPU use with 4 MPI tasks x no OpenMP threads
timestep 1440
fix_modify k1 demflag 0
fix_modify d1 demflag 0
fix_modify vf1 demflag 0
Step CPU Atoms c_myHeight c_myNtype[1] c_myNtype[2] c_myNtype[3] c_myMass[1] c_myMass[2] c_myMass[3] 
   96048            0     4148 0.00017991991            0         3556          592 2.3358381e-11 2.0179656e-11 3.178725e-12 
number of iterations: 4270 
maxz = 1.898011e-04 
S-sub-bulk = 5.139982e-03
S-sub-base = 9.868613e-04
S-nh4-bulk = 1.174395e-03
S-nh4-base = 6.013816e-04

   96049   0.61145401     4251 0.00018022268            0         3645          606 2.3891748e-11 2.0674243e-11 3.2175057e-12 
Loop time of 0.611468 on 4 procs for 1 steps with 4251 atoms

100.0% CPU use with 4 MPI tasks x no OpenMP threads
fix_modify k1 demflag 1
fix_modify d1 demflag 1
fix_modify vf1 demflag 1
timestep 0.1
run 2000 pre no post no
Step CPU Atoms c_myHeight c_myNtype[1] c_myNtype[2] c_myNtype[3] c_myMass[1] c_myMass[2] c_myMass[3] 
   96049            0     4251 0.00018022268            0         3645          606 2.3891748e-11 2.0674243e-11 3.2175057e-12 
   96096  0.042696953     4251 0.00018160445            0         3645          606 2.3891748e-11 2.0674243e-11 3.2175057e-12 
   97097   0.68740082     4251 0.00018335299            0         3645          606 2.3891748e-11 2.0674243e-11 3.2175057e-12 
   98049    1.2372458     4251 0.0001838704            0         3645          606 2.3891748e-11 2.0674243e-11 3.2175057e-12 
Loop time of 1.23727 on 4 procs for 2000 steps with 4251 atoms

100.0% CPU use with 4 MPI tasks x no OpenMP threads
timestep 1440
fix_modify k1 demflag 0
fix_modify d1 demflag 0
fix_modify vf1 demflag 0
Step CPU Atoms c_myHeight c_myNtype[1] c_myNtype[2] c_myNtype[3] c_myMass[1] c_myMass[2] c_myMass[3] 
   98049            0     4251 0.0001838704            0         3645          606 2.3891748e-11 2.0674243e-11 3.2175057e-12 
number of iterations: 666 
maxz = 1.938983e-04 
S-sub-bulk = 4.896467e-03
S-sub-base = 9.805071e-04
S-nh4-bulk = 1.153746e-03
S-nh4-base = 5.997103e-04

   98050   0.11006212     4348 0.0001841051            0         3735          613 2.4444797e-11 2.118796e-11 3.2568371e-12 
Loop time of 0.110077 on 4 procs for 1 steps with 4348 atoms

100.0% CPU use with 4 MPI tasks x no OpenMP threads
fix_modify k1 demflag 1
fix_modify d1 demflag 1
fix_modify vf1 demflag 1
timestep 0.1
run 2000 pre no post no
Step CPU Atoms c_myHeight c_myNtype[1] c_myNtype[2] c_myNtype[3] c_myMass[1] c_myMass[2] c_myMass[3] 
   98050            0     4348 0.0001841051            0         3735          613 2.4444797e-11 2.118796e-11 3.2568371e-12 
   98098  0.046839952     4348 0.00018537243            0         3735          613 2.4444797e-11 2.118796e-11 3.2568371e-12 
[...]
  310310   0.27577305    11876 0.00048572165            0        10765         1111 6.0352595e-11 5.4178371e-11 6.1742234e-12 
  311311     2.162807    11876 0.00048605956            0        10765         1111 6.0352595e-11 5.4178371e-11 6.1742234e-12 
  312156    3.7064431    11876 0.00048635062            0        10765         1111 6.0352595e-11 5.4178371e-11 6.1742234e-12 
Loop time of 3.70647 on 4 procs for 2000 steps with 11876 atoms

99.9% CPU use with 4 MPI tasks x no OpenMP threads
timestep 1440
fix_modify k1 demflag 0
fix_modify d1 demflag 0
fix_modify vf1 demflag 0
Step CPU Atoms c_myHeight c_myNtype[1] c_myNtype[2] c_myNtype[3] c_myMass[1] c_myMass[2] c_myMass[3] 
  312156            0    11876 0.00048635062            0        10765         1111 6.0352595e-11 5.4178371e-11 6.1742234e-12 
number of iterations: 1732 
maxz = 4.946685e-04 
S-sub-bulk = 4.953086e-03
S-sub-base = 1.166586e-05
S-nh4-bulk = 1.700941e-03
S-nh4-base = 1.288844e-04

  312157   0.73497987    11876 0.00048632494            0        10765         1111 6.0352595e-11 5.4178371e-11 6.1742234e-12 
Loop time of 0.735 on 4 procs for 1 steps with 11876 atoms

100.0% CPU use with 4 MPI tasks x no OpenMP threads
fix_modify k1 demflag 1
fix_modify d1 demflag 1
fix_modify vf1 demflag 1
timestep 0.1
run 2000 pre no post no
Step CPU Atoms c_myHeight c_myNtype[1] c_myNtype[2] c_myNtype[3] c_myMass[1] c_myMass[2] c_myMass[3] 
  312157            0    11876 0.00048632494            0        10765         1111 6.0352595e-11 5.4178371e-11 6.1742234e-12 
  312312   0.27179408    11876 0.00048641665            0        10765         1111 6.0352595e-11 5.4178371e-11 6.1742234e-12 
  313313     2.120975    11876 0.0004869114            0        10765         1111 6.0352595e-11 5.4178371e-11 6.1742234e-12 
  314157    3.7117989    11876 0.00048723049            0        10765         1111 6.0352595e-11 5.4178371e-11 6.1742234e-12 
Loop time of 3.71182 on 4 procs for 2000 steps with 11876 atoms

100.0% CPU use with 4 MPI tasks x no OpenMP threads
timestep 1440
fix_modify k1 demflag 0
fix_modify d1 demflag 0
fix_modify vf1 demflag 0
Step CPU Atoms c_myHeight c_myNtype[1] c_myNtype[2] c_myNtype[3] c_myMass[1] c_myMass[2] c_myMass[3] 
  314157            0    11876 0.00048723049            0        10765         1111 6.0352595e-11 5.4178371e-11 6.1742234e-12 
number of iterations: 1483 
maxz = 4.953923e-04 
S-sub-bulk = 4.911418e-03
S-sub-base = 1.164742e-05
S-nh4-bulk = 1.703876e-03
S-nh4-base = 1.288029e-04

  314158   0.63538599    11876 0.00048726105            0        10765         1111 6.0352595e-11 5.4178371e-11 6.1742234e-12 
Loop time of 0.635401 on 4 procs for 1 steps with 11876 atoms

100.0% CPU use with 4 MPI tasks x no OpenMP threads
fix_modify k1 demflag 1
fix_modify d1 demflag 1
fix_modify vf1 demflag 1
timestep 0.1
run 2000 pre no post no
Step CPU Atoms c_myHeight c_myNtype[1] c_myNtype[2] c_myNtype[3] c_myMass[1] c_myMass[2] c_myMass[3] 
  314158            0    11876 0.00048726105            0        10765         1111 6.0352595e-11 5.4178371e-11 6.1742234e-12 
  314314   0.28937602    11876 0.00048736097            0        10765         1111 6.0352595e-11 5.4178371e-11 6.1742234e-12 
  315315    2.1857972    11876 0.0004876189            0        10765         1111 6.0352595e-11 5.4178371e-11 6.1742234e-12 
  316158    3.7332902    11876 0.00048794642            0        10765         1111 6.0352595e-11 5.4178371e-11 6.1742234e-12 
Loop time of 3.73332 on 4 procs for 2000 steps with 11876 atoms

99.9% CPU use with 4 MPI tasks x no OpenMP threads
timestep 1440
fix_modify k1 demflag 0
fix_modify d1 demflag 0
fix_modify vf1 demflag 0
Step CPU Atoms c_myHeight c_myNtype[1] c_myNtype[2] c_myNtype[3] c_myMass[1] c_myMass[2] c_myMass[3] 
  316158            0    11876 0.00048794642            0        10765         1111 6.0352595e-11 5.4178371e-11 6.1742234e-12 
number of iterations: 864 
maxz = 4.958873e-04 
S-sub-bulk = 4.871832e-03
S-sub-base = 1.166101e-05
S-nh4-bulk = 1.705545e-03
S-nh4-base = 1.287736e-04

  316159     0.367908    11876 0.00048801449            0        10765         1111 6.0352595e-11 5.4178371e-11 6.1742234e-12 
Loop time of 0.367925 on 4 procs for 1 steps with 11876 atoms

100.0% CPU use with 4 MPI tasks x no OpenMP threads
fix_modify k1 demflag 1
fix_modify d1 demflag 1
fix_modify vf1 demflag 1
timestep 0.1
run 2000 pre no post no
Step CPU Atoms c_myHeight c_myNtype[1] c_myNtype[2] c_myNtype[3] c_myMass[1] c_myMass[2] c_myMass[3] 
  316159            0    11876 0.00048801449            0        10765         1111 6.0352595e-11 5.4178371e-11 6.1742234e-12 
  316316   0.28872895    11876 0.0004880902            0        10765         1111 6.0352595e-11 5.4178371e-11 6.1742234e-12 
  317317    2.0968809    11876 0.00048834878            0        10765         1111 6.0352595e-11 5.4178371e-11 6.1742234e-12 
  318159    3.6647499    11876 0.00048869706            0        10765         1111 6.0352595e-11 5.4178371e-11 6.1742234e-12 
Loop time of 3.66477 on 4 procs for 2000 steps with 11876 atoms

100.0% CPU use with 4 MPI tasks x no OpenMP threads
timestep 1440
fix_modify k1 demflag 0
fix_modify d1 demflag 0
fix_modify vf1 demflag 0
Step CPU Atoms c_myHeight c_myNtype[1] c_myNtype[2] c_myNtype[3] c_myMass[1] c_myMass[2] c_myMass[3] 
  318159            0    11876 0.00048869706            0        10765         1111 6.0352595e-11 5.4178371e-11 6.1742234e-12 
number of iterations: 1199 
maxz = 4.965199e-04 
S-sub-bulk = 4.844804e-03
S-sub-base = 1.170362e-05
S-nh4-bulk = 1.706590e-03
S-nh4-base = 1.287549e-04

  318160   0.54959488    11876 0.00048867324            0        10765         1111 6.0352595e-11 5.4178371e-11 6.1742234e-12 
Loop time of 0.549617 on 4 procs for 1 steps with 11876 atoms

100.0% CPU use with 4 MPI tasks x no OpenMP threads
fix_modify k1 demflag 1
fix_modify d1 demflag 1
fix_modify vf1 demflag 1
timestep 0.1
run 2000 pre no post no
Step CPU Atoms c_myHeight c_myNtype[1] c_myNtype[2] c_myNtype[3] c_myMass[1] c_myMass[2] c_myMass[3] 
  318160            0    11876 0.00048867324            0        10765         1111 6.0352595e-11 5.4178371e-11 6.1742234e-12 
  318318   0.28931093    11876 0.00048870439            0        10765         1111 6.0352595e-11 5.4178371e-11 6.1742234e-12 
  319319    2.1534169    11876 0.00048908327            0        10765         1111 6.0352595e-11 5.4178371e-11 6.1742234e-12 
  320160     3.646297    11876 0.00048940188            0        10765         1111 6.0352595e-11 5.4178371e-11 6.1742234e-12 
Loop time of 3.64633 on 4 procs for 2000 steps with 11876 atoms

99.9% CPU use with 4 MPI tasks x no OpenMP threads
timestep 1440
fix_modify k1 demflag 0
fix_modify d1 demflag 0
fix_modify vf1 demflag 0
Step CPU Atoms c_myHeight c_myNtype[1] c_myNtype[2] c_myNtype[3] c_myMass[1] c_myMass[2] c_myMass[3] 
  320160            0    11876 0.00048940188            0        10765         1111 6.0352595e-11 5.4178371e-11 6.1742234e-12 
number of iterations: 536 
maxz = 4.975274e-04 
S-sub-bulk = 4.804791e-03
S-sub-base = 1.172800e-05
S-nh4-bulk = 1.706729e-03
S-nh4-base = 1.287583e-04

  320161   0.23614287    11876 0.0004894123            0        10765         1111 6.0352595e-11 5.4178371e-11 6.1742234e-12 
Loop time of 0.236158 on 4 procs for 1 steps with 11876 atoms

100.0% CPU use with 4 MPI tasks x no OpenMP threads
fix_modify k1 demflag 1
fix_modify d1 demflag 1
fix_modify vf1 demflag 1
timestep 0.1
run 2000 pre no post no
Step CPU Atoms c_myHeight c_myNtype[1] c_myNtype[2] c_myNtype[3] c_myMass[1] c_myMass[2] c_myMass[3] 
  320161            0    11876 0.0004894123            0        10765         1111 6.0352595e-11 5.4178371e-11 6.1742234e-12 
  320320   0.28850293    11876 0.00048944305            0        10765         1111 6.0352595e-11 5.4178371e-11 6.1742234e-12 
  321321    2.0444219    11876 0.00048981099            0        10765         1111 6.0352595e-11 5.4178371e-11 6.1742234e-12 
  322161    3.5424371    11876 0.0004901275            0        10765         1111 6.0352595e-11 5.4178371e-11 6.1742234e-12 
Loop time of 3.54246 on 4 procs for 2000 steps with 11876 atoms

100.0% CPU use with 4 MPI tasks x no OpenMP threads
timestep 1440
fix_modify k1 demflag 0
fix_modify d1 demflag 0
fix_modify vf1 demflag 0
Step CPU Atoms c_myHeight c_myNtype[1] c_myNtype[2] c_myNtype[3] c_myMass[1] c_myMass[2] c_myMass[3] 
  322161            0    11876 0.0004901275            0        10765         1111 6.0352595e-11 5.4178371e-11 6.1742234e-12 
number of iterations: 1481 
maxz = 4.982491e-04 
S-sub-bulk = 4.793333e-03
S-sub-base = 1.180223e-05
S-nh4-bulk = 1.706239e-03
S-nh4-base = 1.288055e-04

  322162   0.64968801    11876 0.00049012419            0        10765         1111 6.0352595e-11 5.4178371e-11 6.1742234e-12 
Loop time of 0.649704 on 4 procs for 1 steps with 11876 atoms

100.0% CPU use with 4 MPI tasks x no OpenMP threads
fix_modify k1 demflag 1
fix_modify d1 demflag 1
fix_modify vf1 demflag 1
timestep 0.1
run 2000 pre no post no
Step CPU Atoms c_myHeight c_myNtype[1] c_myNtype[2] c_myNtype[3] c_myMass[1] c_myMass[2] c_myMass[3] 
  322162            0    11876 0.00049012419            0        10765         1111 6.0352595e-11 5.4178371e-11 6.1742234e-12 
  322322   0.29255605    11876 0.00049020285            0        10765         1111 6.0352595e-11 5.4178371e-11 6.1742234e-12 
  323323     2.141521    11876 0.00049060635            0        10765         1111 6.0352595e-11 5.4178371e-11 6.1742234e-12 
  324162    3.6373689    11876 0.00049077002            0        10765         1111 6.0352595e-11 5.4178371e-11 6.1742234e-12 
Loop time of 3.6374 on 4 procs for 2000 steps with 11876 atoms

100.0% CPU use with 4 MPI tasks x no OpenMP threads
timestep 1440
fix_modify k1 demflag 0
fix_modify d1 demflag 0
fix_modify vf1 demflag 0
Step CPU Atoms c_myHeight c_myNtype[1] c_myNtype[2] c_myNtype[3] c_myMass[1] c_myMass[2] c_myMass[3] 
  324162            0    11876 0.00049077002            0        10765         1111 6.0352595e-11 5.4178371e-11 6.1742234e-12 
number of iterations: 617 
maxz = 4.987872e-04 
S-sub-bulk = 4.769384e-03
S-sub-base = 1.183208e-05
S-nh4-bulk = 1.705116e-03
S-nh4-base = 1.288433e-04

  324163   0.26550102    11876 0.00049080671            0        10765         1111 6.0352595e-11 5.4178371e-11 6.1742234e-12 
Loop time of 0.265516 on 4 procs for 1 steps with 11876 atoms

100.0% CPU use with 4 MPI tasks x no OpenMP threads
fix_modify k1 demflag 1
fix_modify d1 demflag 1
fix_modify vf1 demflag 1
timestep 0.1
run 2000 pre no post no
Step CPU Atoms c_myHeight c_myNtype[1] c_myNtype[2] c_myNtype[3] c_myMass[1] c_myMass[2] c_myMass[3] 
  324163            0    11876 0.00049080671            0        10765         1111 6.0352595e-11 5.4178371e-11 6.1742234e-12 
  324324   0.30342412    11876 0.00049087732            0        10765         1111 6.0352595e-11 5.4178371e-11 6.1742234e-12 
  325325     2.099735    11876 0.00049123138            0        10765         1111 6.0352595e-11 5.4178371e-11 6.1742234e-12 
  326163     3.589113    11876 0.00049153768            0        10765         1111 6.0352595e-11 5.4178371e-11 6.1742234e-12 
Loop time of 3.58914 on 4 procs for 2000 steps with 11876 atoms

99.9% CPU use with 4 MPI tasks x no OpenMP threads
timestep 1440
fix_modify k1 demflag 0
fix_modify d1 demflag 0
fix_modify vf1 demflag 0
Step CPU Atoms c_myHeight c_myNtype[1] c_myNtype[2] c_myNtype[3] c_myMass[1] c_myMass[2] c_myMass[3] 
  326163            0    11876 0.00049153768            0        10765         1111 6.0352595e-11 5.4178371e-11 6.1742234e-12 
number of iterations: 408 
maxz = 4.996667e-04 
S-sub-bulk = 4.729570e-03
S-sub-base = 1.185070e-05
S-nh4-bulk = 1.703868e-03
S-nh4-base = 1.288745e-04

  326164   0.18336296    11876 0.00049143698            0        10765         1111 6.0352595e-11 5.4178371e-11 6.1742234e-12 
Loop time of 0.183382 on 4 procs for 1 steps with 11876 atoms

100.0% CPU use with 4 MPI tasks x no OpenMP threads
fix_modify k1 demflag 1
fix_modify d1 demflag 1
fix_modify vf1 demflag 1
timestep 0.1
run 2000 pre no post no
Step CPU Atoms c_myHeight c_myNtype[1] c_myNtype[2] c_myNtype[3] c_myMass[1] c_myMass[2] c_myMass[3] 
  326164            0    11876 0.00049143698            0        10765         1111 6.0352595e-11 5.4178371e-11 6.1742234e-12 
  326326   0.29276896    11876 0.00049147795            0        10765         1111 6.0352595e-11 5.4178371e-11 6.1742234e-12 
  327327    2.4412959    11876 0.00049189475            0        10765         1111 6.0352595e-11 5.4178371e-11 6.1742234e-12 
  328164      4.05369    11876 0.00049209901            0        10765         1111 6.0352595e-11 5.4178371e-11 6.1742234e-12 
Loop time of 4.05372 on 4 procs for 2000 steps with 11876 atoms

99.7% CPU use with 4 MPI tasks x no OpenMP threads
timestep 1440
fix_modify k1 demflag 0
fix_modify d1 demflag 0
fix_modify vf1 demflag 0
Step CPU Atoms c_myHeight c_myNtype[1] c_myNtype[2] c_myNtype[3] c_myMass[1] c_myMass[2] c_myMass[3] 
  328164            0    11876 0.00049209901            0        10765         1111 6.0352595e-11 5.4178371e-11 6.1742234e-12 
number of iterations: 955 
maxz = 5.002316e-04 
S-sub-bulk = 4.702834e-03
S-sub-base = 1.188959e-05
S-nh4-bulk = 1.701723e-03
S-nh4-base = 1.289612e-04

number of iterations: 18105 
S-sub-bulk = 5.381222e-03
S-sub-base = 1.045560e-05
S-nh4-bulk = 1.718155e-03
S-nh4-base = 1.291788e-04

number of iterations: 17722 
S-sub-bulk = 5.184982e-03
S-sub-base = 1.105473e-05
S-nh4-bulk = 1.733418e-03
S-nh4-base = 1.297349e-04

number of iterations: 1948 
S-sub-bulk = 5.105405e-03
S-sub-base = 1.125051e-05
S-nh4-bulk = 1.744295e-03
S-nh4-base = 1.299733e-04

number of iterations: 1867 
S-sub-bulk = 5.116154e-03
S-sub-base = 1.140211e-05
S-nh4-bulk = 1.751694e-03
S-nh4-base = 1.302046e-04

number of iterations: 119 
S-sub-bulk = 5.127427e-03
S-sub-base = 1.141062e-05
S-nh4-bulk = 1.757071e-03
S-nh4-base = 1.302195e-04

number of iterations: 155 
S-sub-bulk = 5.139531e-03
S-sub-base = 1.142151e-05
S-nh4-bulk = 1.760934e-03
S-nh4-base = 1.302390e-04

number of iterations: 136 
S-sub-bulk = 5.151303e-03
S-sub-base = 1.143088e-05
S-nh4-bulk = 1.763691e-03
S-nh4-base = 1.302562e-04

number of iterations: 117 
S-sub-bulk = 5.162055e-03
S-sub-base = 1.143879e-05
S-nh4-bulk = 1.765644e-03
S-nh4-base = 1.302710e-04

number of iterations: 126 
S-sub-bulk = 5.171834e-03
S-sub-base = 1.144718e-05
S-nh4-bulk = 1.766999e-03
S-nh4-base = 1.302871e-04

number of iterations: 134 
S-sub-bulk = 5.180651e-03
S-sub-base = 1.145593e-05
S-nh4-bulk = 1.767908e-03
S-nh4-base = 1.303042e-04

number of iterations: 126 
S-sub-bulk = 5.188373e-03
S-sub-base = 1.146400e-05
S-nh4-bulk = 1.768494e-03
S-nh4-base = 1.303205e-04

number of iterations: 116 
S-sub-bulk = 5.194970e-03
S-sub-base = 1.147130e-05
S-nh4-bulk = 1.768847e-03
S-nh4-base = 1.303355e-04

number of iterations: 99 
S-sub-bulk = 5.200449e-03
S-sub-base = 1.147742e-05
S-nh4-bulk = 1.769041e-03
S-nh4-base = 1.303484e-04

number of iterations: 92 
S-sub-bulk = 5.204941e-03
S-sub-base = 1.148303e-05
S-nh4-bulk = 1.769121e-03
S-nh4-base = 1.303605e-04

number of iterations: 82 
S-sub-bulk = 5.208570e-03
S-sub-base = 1.148795e-05
S-nh4-bulk = 1.769124e-03
S-nh4-base = 1.303713e-04

number of iterations: 70 
S-sub-bulk = 5.211461e-03
S-sub-base = 1.149210e-05
S-nh4-bulk = 1.769078e-03
S-nh4-base = 1.303806e-04

number of iterations: 59 
S-sub-bulk = 5.213738e-03
S-sub-base = 1.149557e-05
S-nh4-bulk = 1.769004e-03
S-nh4-base = 1.303884e-04

number of iterations: 48 
S-sub-bulk = 5.215514e-03
S-sub-base = 1.149836e-05
S-nh4-bulk = 1.768917e-03
S-nh4-base = 1.303949e-04

number of iterations: 47 
S-sub-bulk = 5.216904e-03
S-sub-base = 1.150107e-05
S-nh4-bulk = 1.768820e-03
S-nh4-base = 1.304012e-04

number of iterations: 46 
S-sub-bulk = 5.217993e-03
S-sub-base = 1.150370e-05
S-nh4-bulk = 1.768717e-03
S-nh4-base = 1.304073e-04

number of iterations: 44 
S-sub-bulk = 5.218847e-03
S-sub-base = 1.150619e-05
S-nh4-bulk = 1.768610e-03
S-nh4-base = 1.304133e-04

number of iterations: 42 
S-sub-bulk = 5.219518e-03
S-sub-base = 1.150856e-05
S-nh4-bulk = 1.768503e-03
S-nh4-base = 1.304190e-04

number of iterations: 41 
S-sub-bulk = 5.220049e-03
S-sub-base = 1.151085e-05
S-nh4-bulk = 1.768395e-03
S-nh4-base = 1.304245e-04

number of iterations: 40 
S-sub-bulk = 5.220472e-03
S-sub-base = 1.151306e-05
S-nh4-bulk = 1.768287e-03
S-nh4-base = 1.304300e-04

number of iterations: 39 
S-sub-bulk = 5.220812e-03
S-sub-base = 1.151521e-05
S-nh4-bulk = 1.768181e-03
S-nh4-base = 1.304353e-04

number of iterations: 39 
S-sub-bulk = 5.221089e-03
S-sub-base = 1.151734e-05
S-nh4-bulk = 1.768074e-03
S-nh4-base = 1.304406e-04

number of iterations: 38 
S-sub-bulk = 5.221318e-03
S-sub-base = 1.151940e-05
S-nh4-bulk = 1.767969e-03
S-nh4-base = 1.304459e-04

number of iterations: 38 
S-sub-bulk = 5.221511e-03
S-sub-base = 1.152144e-05
S-nh4-bulk = 1.767865e-03
S-nh4-base = 1.304511e-04

number of iterations: 37 
S-sub-bulk = 5.221676e-03
S-sub-base = 1.152342e-05
S-nh4-bulk = 1.767761e-03
S-nh4-base = 1.304562e-04

number of iterations: 37 
S-sub-bulk = 5.221820e-03
S-sub-base = 1.152538e-05
S-nh4-bulk = 1.767658e-03
S-nh4-base = 1.304613e-04

number of iterations: 37 
S-sub-bulk = 5.221950e-03
S-sub-base = 1.152733e-05
S-nh4-bulk = 1.767556e-03
S-nh4-base = 1.304665e-04

number of iterations: 36 
S-sub-bulk = 5.222067e-03
S-sub-base = 1.152921e-05
S-nh4-bulk = 1.767454e-03
S-nh4-base = 1.304715e-04

number of iterations: 36 
S-sub-bulk = 5.222176e-03
S-sub-base = 1.153107e-05
S-nh4-bulk = 1.767353e-03
S-nh4-base = 1.304766e-04

number of iterations: 36 
S-sub-bulk = 5.222278e-03
S-sub-base = 1.153292e-05
S-nh4-bulk = 1.767252e-03
S-nh4-base = 1.304816e-04

number of iterations: 36 
S-sub-bulk = 5.222375e-03
S-sub-base = 1.153476e-05
S-nh4-bulk = 1.767151e-03
S-nh4-base = 1.304867e-04

number of iterations: 36 
S-sub-bulk = 5.222469e-03
S-sub-base = 1.153658e-05
S-nh4-bulk = 1.767050e-03
S-nh4-base = 1.304918e-04

number of iterations: 36 
S-sub-bulk = 5.222560e-03
S-sub-base = 1.153839e-05
S-nh4-bulk = 1.766948e-03
S-nh4-base = 1.304969e-04

number of iterations: 36 
S-sub-bulk = 5.222648e-03
S-sub-base = 1.154018e-05
S-nh4-bulk = 1.766847e-03
S-nh4-base = 1.305020e-04

number of iterations: 36 
S-sub-bulk = 5.222733e-03
S-sub-base = 1.154196e-05
S-nh4-bulk = 1.766745e-03
S-nh4-base = 1.305071e-04

number of iterations: 36 
S-sub-bulk = 5.222817e-03
S-sub-base = 1.154372e-05
S-nh4-bulk = 1.766643e-03
S-nh4-base = 1.305123e-04

number of iterations: 35 
S-sub-bulk = 5.222899e-03
S-sub-base = 1.154542e-05
S-nh4-bulk = 1.766541e-03
S-nh4-base = 1.305173e-04

number of iterations: 36 
S-sub-bulk = 5.222980e-03
S-sub-base = 1.154715e-05
S-nh4-bulk = 1.766438e-03
S-nh4-base = 1.305225e-04

number of iterations: 35 
S-sub-bulk = 5.223059e-03
S-sub-base = 1.154882e-05
S-nh4-bulk = 1.766336e-03
S-nh4-base = 1.305276e-04

number of iterations: 36 
S-sub-bulk = 5.223137e-03
S-sub-base = 1.155053e-05
S-nh4-bulk = 1.766233e-03
S-nh4-base = 1.305328e-04

number of iterations: 35 
S-sub-bulk = 5.223213e-03
S-sub-base = 1.155217e-05
S-nh4-bulk = 1.766129e-03
S-nh4-base = 1.305379e-04

number of iterations: 35 
S-sub-bulk = 5.223287e-03
S-sub-base = 1.155380e-05
S-nh4-bulk = 1.766026e-03
S-nh4-base = 1.305430e-04

number of iterations: 35 
S-sub-bulk = 5.223360e-03
S-sub-base = 1.155541e-05
S-nh4-bulk = 1.765923e-03
S-nh4-base = 1.305482e-04

number of iterations: 35 
S-sub-bulk = 5.223431e-03
S-sub-base = 1.155701e-05
S-nh4-bulk = 1.765819e-03
S-nh4-base = 1.305533e-04

number of iterations: 35 
S-sub-bulk = 5.223501e-03
S-sub-base = 1.155859e-05
S-nh4-bulk = 1.765715e-03
S-nh4-base = 1.305585e-04

number of iterations: 35 
S-sub-bulk = 5.223569e-03
S-sub-base = 1.156016e-05
S-nh4-bulk = 1.765611e-03
S-nh4-base = 1.305637e-04

ERROR: Finish (../fix_bio_verify.cpp:310)
