LAMMPS (5 Nov 2016)
# NUFEB simulation

atom_style	bio
atom_modify	map array sort 100 5.0e-7
boundary	ff ff ff
newton		off
#processors  2 1 1

comm_modify	vel yes
read_data_bio atom.in
  orthogonal box = (0 0 0) to (0.0001 4e-05 0.0001)
  1 by 1 by 1 MPI processor grid
  reading atoms ...
  80 atoms
  5 nutrients

group HET type 1 2
80 atoms in group HET

neighbor	5e-7 bin
neigh_modify	delay 0 one 5000

#pair_style none
pair_style  gran/hooke/history 1.e-4 NULL 1.e-5 NULL 0.0 1

pair_coeff  * *
timestep 9

fix 1 all nve/limit 1e-7

fix fv all viscous 1e-5

fix xw all wall/gran hooke/history 2000 NULL 500.0 NULL 1.5 0 xplane  0.0   1.0e-04
fix yw all wall/gran hooke/history 2000 NULL 500.0 NULL 1.5 0 yplane  0.0   4.0e-05
fix zw all wall/gran hooke/history 2000 NULL 500.0 NULL 1.5 0 zplane  0.0   1.0e-04

variable kanc equal 50

fix xwa all walladh v_kanc xplane  0.0   1.0e-04
fix ywa all walladh v_kanc yplane  0.0   4.0e-05
fix zwa all walladh v_kanc zplane  0.0   1.0e-04

##############Ibm Variable Definitions##############

#Defining EPS density and ratio variables
variable EPSdens equal 30
variable EPSratio equal 1.25
variable divMass equal 7.21e-17

variable ke equal 5e+10

#Defining kinetics variables
variable temp equal 298.15
variable gasTran equal 0.08205746
variable gvol equal 8e-14
variable rth equal 0.0083144
variable pressure equal 1
variable ph equal 7.0
variable etaHET equal 0.0

#Defining diffusion variables
variable diffT equal 5e-4
variable tol equal 1e-6
variable bl equal -1
variable shearRate equal 0.0

##############Ibm functions##############

fix k1 all kinetics 400 30 12 30 v_temp v_rth v_gvol v_gasTran v_ph v_diffT v_bl
fix kgm all kinetics/growth/monod v_EPSdens v_etaHET 1
fix g1 all kinetics/diffusion v_shearRate v_tol pp pp nd kg
fix d1 all divide 400 v_EPSdens v_divMass 31231

##############Ibm compute##############

compute myNtypes all ntypes

##############Simulation outputs##############

dump		id all custom 4000 snapshot.bubblemd id type diameter x y z
dump            d0 all bio 4000 concentration ntypes ave_concentration
thermo_style    custom step cpu atoms biomass c_myNtypes[*]
thermo		400
thermo_modify	lost ignore

run 192000
WARNING: EPS is not defined in fix_kinetics/kinetics/monod (../fix_bio_kinetics_monod.cpp:242)
Neighbor list info ...
  2 neighbor list requests
  update every 1 steps, delay 0 steps, check yes
  max neighbors/atom: 5000, page size: 100000
  master list distance cutoff = 1.5e-06
  ghost atom cutoff = 1.5e-06
  binsize = 7.5e-07 -> bins = 134 54 134
Memory usage per processor = 13.5504 Mbytes
Step CPU Atoms biomass c_myNtypes[1] c_myNtypes[2] 
       0            0       80 6.2831853e-15           40           40 
     400    10.423175      160 6.7932444e-15           80           80 
     800    13.521168      160 7.3458443e-15           80           80 
    1200    16.723888      160 7.944512e-15           80           80 
    1600    20.128023      160 8.5930055e-15           80           80 
    2000    23.717828      160 9.295349e-15           80           80 
    2400    27.505189      172 1.0055842e-14           92           80 
    2800    31.509909      194 1.0879066e-14          114           80 
    3200    35.677731      212  1.17699e-14          132           80 
    3600    40.057118      239 1.273351e-14          147           92 
    4000    44.639189      268 1.3775323e-14          160          108 
    4400    49.412763      280 1.4901048e-14          160          120 
    4800    54.338124      292 1.6116665e-14          165          127 
    5200    59.465837      321 1.7428389e-14          182          139 
    5600    64.751042      359 1.8842726e-14          210          149 
    6000    70.301549      396 2.0366159e-14          236          160 
    6400    75.944583      434 2.2005345e-14          274          160 
    6800    81.718341      458 2.376702e-14          298          160 
    7200    87.646095      473 2.5657861e-14          312          161 
    7600    93.880166      495 2.7684442e-14          330          165 
    8000    100.09537      531 2.9852931e-14          352          179 
    8400    106.45289      580 3.2169623e-14          383          197 
    8800    112.88209      637 3.4639832e-14          427          210 
    9200    119.34226      702 3.7268439e-14          471          231 
    9600    125.82719      769 4.0059912e-14          516          253 
   10000    132.31808      835 4.3017187e-14          563          272 
   10400    138.72815      903 4.6143028e-14          615          288 
   10800    145.11378      951 4.9438428e-14          650          301 
   11200    151.41112     1000 5.2903611e-14          692          308 
   11600    157.66165     1048 5.6538485e-14          734          314 
   12000    163.75954     1111 6.0341365e-14          787          324 
   12400    169.66351     1184 6.4309209e-14          852          332 
   12800    175.38063     1273 6.8438922e-14          928          345 
   13200    180.94079     1382 7.272672e-14         1013          369 
   13600    186.39369     1472 7.7167589e-14         1082          390 
   14000    191.63408     1574 8.1755176e-14         1162          412 
   14400    196.67399     1668 8.6485276e-14         1223          445 
   14800    201.52124     1768 9.1350355e-14         1293          475 
   15200    206.19125     1859 9.634455e-14         1359          500 
   15600    210.72699     1947 1.0146335e-13         1428          519 
   16000    215.10089     2042 1.0669818e-13         1497          545 
   16400    219.23687     2133 1.1204281e-13         1572          561 
   16800    223.29549     2258 1.1749487e-13         1672          586 
   17200    227.14102     2366 1.2304536e-13         1765          601 
   17600    230.85841     2474 1.2868906e-13         1857          617 
   18000    234.46501     2597 1.344214e-13         1958          639 
   18400    237.96858     2735 1.4023746e-13         2083          652 
   18800    241.40595     2861 1.4613459e-13         2192          669 
   19200    244.69556     2960 1.5210643e-13         2268          692 
   19600    247.87885     3079 1.5814659e-13         2366          713 
   20000    250.99201     3185 1.6425253e-13         2449          736 
   20400    253.93759     3322 1.7042194e-13         2552          770 
   20800    256.78746     3440 1.7665106e-13         2638          802 
   21200    259.56888     3567 1.829361e-13         2734          833 
   21600    262.33671     3676 1.8927424e-13         2818          858 
   22000    265.05929     3803 1.9566363e-13         2911          892 
   22400    267.62035     3927 2.0209932e-13         3008          919 
   22800    270.04426     4061 2.0857913e-13         3111          950 
   23200    272.46591     4206 2.1510128e-13         3219          987 
   23600    274.84597     4322 2.2166378e-13         3313         1009 
   24000    277.26669     4465 2.2826479e-13         3428         1037 
   24400     279.4373     4623 2.3490118e-13         3562         1061 
   24800     281.6774     4756 2.4157467e-13         3664         1092 
   25200    283.82455     4895 2.4828069e-13         3776         1119 
   25600    285.96616     5024 2.5501824e-13         3887         1137 
   26000    288.04898     5172 2.617855e-13         4013         1159 
   26400    290.00777     5316 2.6857983e-13         4135         1181 
   26800    292.00136     5464 2.7540189e-13         4260         1204 
   27200    293.95412     5595 2.8225114e-13         4357         1238 
   27600    295.98078     5726 2.8912628e-13         4460         1266 
   28000    297.98904     5872 2.9602489e-13         4585         1287 
   28400    299.88746     6004 3.0294702e-13         4695         1309 
   28800      301.682     6136 3.0989099e-13         4803         1333 
   29200    303.49508     6266 3.1685712e-13         4910         1356 
   29600    305.27614     6402 3.2384328e-13         5014         1388 
   30000    307.09128     6524 3.3084917e-13         5112         1412 
   30400    308.80901     6665 3.3787371e-13         5218         1447 
   30800    310.57128     6815 3.4491522e-13         5341         1474 
   31200    312.40312     6947 3.5197558e-13         5452         1495 
   31600    314.16073     7095 3.5905167e-13         5574         1521 
   32000     315.8022     7236 3.6614351e-13         5681         1555 
   32400     317.5848     7380 3.7325156e-13         5790         1590 
   32800    319.33707     7509 3.8037481e-13         5891         1618 
   33200     320.9896     7661 3.875124e-13         6005         1656 
   33600    322.54846     7815 3.9466344e-13         6125         1690 
   34000    324.14228     7966 4.0182851e-13         6239         1727 
   34400    325.77113     8091 4.0900666e-13         6342         1749 
   34800    327.34696     8234 4.1619791e-13         6449         1785 
   35200    328.98448     8388 4.2340135e-13         6578         1810 
   35600    330.60906     8544 4.3061686e-13         6694         1850 
   36000    332.21075     8695 4.3784437e-13         6817         1878 
   36400    333.82817     8839 4.4508432e-13         6927         1912 
   36800    335.44318     8999 4.5233489e-13         7057         1942 
   37200    337.07837     9136 4.5959674e-13         7166         1970 
   37600    338.69862     9275 4.6686895e-13         7285         1990 
   38000    340.40706     9437 4.741513e-13         7405         2032 
   38400    341.97581     9615 4.8144309e-13         7551         2064 
   38800    343.66705     9770 4.8874345e-13         7676         2094 
   39200    345.25623     9919 4.9605349e-13         7804         2115 
   39600    346.98159    10066 5.0337224e-13         7916         2150 
   40000    348.66093    10221 5.1069926e-13         8052         2169 
   40400    350.26547    10371 5.1803483e-13         8181         2190 
   40800    351.88134    10508 5.2537752e-13         8291         2217 
   41200    353.47982    10645 5.3272882e-13         8394         2251 
   41600    355.12289    10765 5.4008728e-13         8493         2272 
   42000    356.73228    10936 5.474538e-13         8625         2311 
   42400    358.39535    11059 5.5482855e-13         8726         2333 
   42800    360.04157    11229 5.6221101e-13         8862         2367 
   43200    361.64225    11372 5.6960093e-13         8971         2401 
   43600    363.24337    11507 5.7699699e-13         9082         2425 
   44000    364.95096    11648 5.8439898e-13         9199         2449 
   44400    366.59412    11811 5.9180761e-13         9334         2477 
   44800    368.19264    11963 5.9922198e-13         9459         2504 
   45200    369.94659    12113 6.0664259e-13         9578         2535 
   45600    371.70115    12262 6.1406995e-13         9700         2562 
   46000    373.46651    12426 6.2150319e-13         9826         2600 
   46400    375.17102    12575 6.2894211e-13         9946         2629 
   46800    377.00726    12716 6.363863e-13        10056         2660 
   47200    378.81477    12852 6.4383706e-13        10172         2680 
   47600    380.54531    12995 6.5129257e-13        10297         2698 
   48000    382.37005    13136 6.5875402e-13        10413         2723 
   48400    384.17599    13279 6.6622025e-13        10530         2749 
   48800     385.9038    13425 6.7369217e-13        10654         2771 
   49200    387.76541    13570 6.8116838e-13        10759         2811 
   49600    389.65113    13723 6.8865011e-13        10873         2850 
   50000    391.42877    13882 6.9613674e-13        10998         2884 
   50400    393.21274    14040 7.0362809e-13        11122         2918 
   50800    395.10715    14218 7.1112327e-13        11263         2955 
   51200    396.90558    14351 7.1862349e-13        11367         2984 
   51600    398.72348    14512 7.2612819e-13        11507         3005 
   52000    400.71143    14656 7.3363732e-13        11614         3042 
   52400    402.49545    14806 7.4115021e-13        11734         3072 
   52800     404.5163    14941 7.4866805e-13        11848         3093 
   53200    406.36155    15085 7.5618985e-13        11967         3118 
   53600    408.14344    15232 7.6371515e-13        12083         3149 
   54000    410.29042    15383 7.7124421e-13        12206         3177 
   54400    412.34606    15550 7.7877659e-13        12338         3212 
   54800    414.47191    15701 7.8631223e-13        12453         3248 
   55200    416.50947    15848 7.9385217e-13        12569         3279 
   55600    418.55995    15998 8.0139533e-13        12690         3308 
   56000    420.67759    16177 8.089427e-13        12832         3345 
   56400    422.79383    16360 8.1649305e-13        12986         3374 
   56800    424.79106    16481 8.2404758e-13        13084         3397 
   57200    426.67392    16640 8.3160545e-13        13209         3431 
   57600    428.71785    16805 8.3916656e-13        13344         3461 
   58000    430.90763    16953 8.4673117e-13        13454         3499 
   58400    433.00165    17105 8.5429989e-13        13580         3525 
   58800    435.06513    17258 8.6187195e-13        13709         3549 
   59200    437.35995    17414 8.6944617e-13        13829         3585 
   59600    439.48424    17573 8.7702384e-13        13958         3615 
   60000    441.65353    17726 8.8460441e-13        14070         3656 
   60400    443.71707    17908 8.9218689e-13        14217         3691 
   60800    445.99917    18077 8.9977215e-13        14347         3730 
   61200     448.2481    18231 9.0736062e-13        14469         3762 
   61600    450.61795    18370 9.1495191e-13        14578         3792 
   62000    452.80302    18515 9.2254542e-13        14685         3830 
   62400    455.03977    18666 9.3014078e-13        14805         3861 
   62800     457.2463    18809 9.3773913e-13        14916         3893 
   63200    459.48058    18961 9.453398e-13        15042         3919 
   63600    461.83905    19120 9.5294309e-13        15173         3947 
   64000    464.22331    19268 9.6054946e-13        15300         3968 
   64400    466.54456    19406 9.6815768e-13        15404         4002 
   64800     468.9247    19564 9.7576845e-13        15532         4032 
   65200    471.22584    19724 9.8338185e-13        15659         4065 
   65600    473.53964    19896 9.909975e-13        15802         4094 
   66000    475.83243    20041 9.9861609e-13        15924         4117 
   66400    478.16222    20183 1.0062359e-12        16030         4153 
   66800    480.59341    20354 1.0138584e-12        16169         4185 
   67200    482.87014    20512 1.0214833e-12        16302         4210 
   67600    485.32342    20680 1.0291101e-12        16433         4247 
   68000    487.85728    20831 1.0367393e-12        16557         4274 
   68400    490.18559    20988 1.044371e-12        16685         4303 
   68800    492.68097    21147 1.0520035e-12        16811         4336 
   69200    495.20451    21305 1.0596391e-12        16937         4368 
   69600    497.72344    21467 1.0672772e-12        17068         4399 
   70000    500.32615    21613 1.0749169e-12        17181         4432 
   70400    502.93295    21773 1.0825596e-12        17318         4455 
   70800    505.58527    21902 1.090204e-12        17428         4474 
   71200    508.03445    22033 1.0978505e-12        17535         4498 
   71600    510.59777    22178 1.1054989e-12        17653         4525 
   72000    513.33644    22339 1.1131497e-12        17784         4555 
   72400    516.08797    22506 1.1208014e-12        17926         4580 
   72800    518.74441    22652 1.1284543e-12        18045         4607 
   73200    521.53279    22800 1.1361089e-12        18164         4636 
   73600    524.32092    22949 1.1437651e-12        18287         4662 
   74000    527.06899    23115 1.1514241e-12        18419         4696 
   74400    529.74899    23259 1.1590846e-12        18536         4723 
   74800    532.63627    23425 1.1667472e-12        18672         4753 
   75200    535.36574    23600 1.1744121e-12        18814         4786 
   75600    538.34555    23750 1.182079e-12        18933         4817 
   76000    541.37148    23889 1.1897474e-12        19044         4845 
   76400    544.38412    24036 1.1974181e-12        19160         4876 
   76800    547.39642    24185 1.205089e-12        19283         4902 
   77200     550.3438    24332 1.2127625e-12        19403         4929 
   77600    553.27893    24493 1.220438e-12        19534         4959 
   78000    556.22665    24635 1.2281149e-12        19643         4992 
   78400    559.21484    24786 1.2357938e-12        19763         5023 
   78800    562.26664    24952 1.2434743e-12        19892         5060 
   79200    565.22533    25119 1.251157e-12        20029         5090 
   79600    568.37733    25269 1.2588411e-12        20153         5116 
   80000    571.69306    25446 1.2665266e-12        20291         5155 
   80400    574.89745    25593 1.2742146e-12        20414         5179 
   80800      578.081    25745 1.2819017e-12        20538         5207 
   81200    581.13127    25894 1.2895913e-12        20657         5237 
   81600    584.36928    26046 1.2972819e-12        20783         5263 
   82000     587.6808    26218 1.3049756e-12        20926         5292 
   82400    591.02546    26377 1.3126704e-12        21048         5329 
   82800    594.36451    26539 1.3203664e-12        21187         5352 
   83200    597.69485    26696 1.3280641e-12        21325         5371 
   83600    601.18604    26856 1.3357632e-12        21449         5407 
   84000    604.63559    27022 1.343463e-12        21580         5442 
   84400    608.10188    27178 1.3511647e-12        21715         5463 
   84800    611.60592    27342 1.3588689e-12        21853         5489 
   85200     615.1368    27523 1.3665748e-12        22007         5516 
   85600     618.8005    27651 1.3742811e-12        22108         5543 
   86000    622.28948    27807 1.3819892e-12        22230         5577 
   86400    625.87075    27960 1.3896989e-12        22353         5607 
   86800    629.46657    28090 1.3974103e-12        22457         5633 
   87200    632.71937    28247 1.4051233e-12        22574         5673 
   87600    636.10341    28405 1.4128376e-12        22708         5697 
   88000    639.44636    28573 1.4205539e-12        22845         5728 
   88400    642.72118    28723 1.4282707e-12        22969         5754 
   88800     646.0229    28883 1.4359893e-12        23096         5787 
   89200     649.4184    29056 1.4437099e-12        23233         5823 
   89600     652.7918    29201 1.4514323e-12        23346         5855 
   90000    655.95253    29374 1.4591552e-12        23479         5895 
   90400    659.54802    29527 1.4668798e-12        23610         5917 
   90800    663.08377    29669 1.4746055e-12        23718         5951 
   91200    666.53214    29835 1.482333e-12        23858         5977 
   91600    670.07174    29976 1.4900622e-12        23965         6011 
   92000    673.71025    30141 1.4977941e-12        24094         6047 
   92400    677.47319    30272 1.5055266e-12        24193         6079 
   92800    680.96995    30431 1.5132617e-12        24316         6115 
   93200    684.49158    30585 1.5209979e-12        24434         6151 
   93600    688.19278    30758 1.5287349e-12        24576         6182 
   94000    691.87814    30902 1.5364733e-12        24684         6218 
   94400    695.48784    31063 1.5442133e-12        24820         6243 
   94800    699.23858    31226 1.5519539e-12        24958         6268 
   95200    702.95067    31389 1.5596967e-12        25082         6307 
   95600    706.57012    31553 1.5674411e-12        25211         6342 
   96000    710.53481    31711 1.5751871e-12        25340         6371 
   96400     714.3937    31859 1.582935e-12        25469         6390 
   96800     718.3306    32027 1.5906832e-12        25606         6421 
   97200    722.21261    32179 1.5984331e-12        25727         6452 
   97600    725.88193    32340 1.6061842e-12        25868         6472 
   98000    729.47396    32498 1.613937e-12        25998         6500 
   98400    733.45977    32659 1.6216903e-12        26122         6537 
   98800    737.52907    32812 1.6294461e-12        26253         6559 
   99200    741.61434    32971 1.6372031e-12        26385         6586 
   99600    745.74882    33142 1.6449616e-12        26529         6613 
  100000     749.8366    33282 1.6527221e-12        26645         6637 
  100400    753.98025    33446 1.6604839e-12        26782         6664 
  100800    758.21939    33600 1.6682478e-12        26899         6701 
  101200    762.33517    33730 1.6760127e-12        27002         6728 
  101600    766.35805    33884 1.683779e-12        27134         6750 
  102000    770.62536    34033 1.6915476e-12        27257         6776 
  102400    774.77213    34198 1.699317e-12        27397         6801 
  102800    779.00437    34334 1.7070876e-12        27504         6830 
  103200    782.96031    34501 1.714859e-12        27652         6849 
  103600    787.22165    34644 1.7226334e-12        27774         6870 
  104000    791.54606    34808 1.7304087e-12        27905         6903 
  104400    795.77754    34972 1.7381851e-12        28043         6929 
  104800    800.96403    35131 1.7459645e-12        28169         6962 
  105200    805.96431    35291 1.7537447e-12        28296         6995 
  105600    810.37853    35437 1.7615257e-12        28420         7017 
  106000    814.98905    35615 1.7693096e-12        28563         7052 
  106400    819.60643    35756 1.7770971e-12        28683         7073 
  106800     824.0745    35903 1.7848858e-12        28804         7099 
  107200     828.8358    36052 1.7926752e-12        28923         7129 
  107600    833.19035    36212 1.8004672e-12        29050         7162 
  108000    838.07225    36359 1.808261e-12        29169         7190 
  108400    842.45565    36521 1.8160556e-12        29300         7221 
  108800    847.27846    36673 1.823852e-12        29420         7253 
  109200    851.85117    36825 1.8316496e-12        29542         7283 
  109600    856.67818    36974 1.839448e-12        29667         7307 
  110000     861.5951    37128 1.847249e-12        29794         7334 
  110400    866.44357    37285 1.8550516e-12        29932         7353 
  110800    871.16659    37436 1.8628561e-12        30056         7380 
  111200    876.08903    37596 1.8706615e-12        30184         7412 
  111600    881.14882    37776 1.8784692e-12        30330         7446 
  112000    885.82056    37930 1.8862787e-12        30459         7471 
  112400    890.71671    38105 1.8940886e-12        30602         7503 
  112800    895.65514    38264 1.9019021e-12        30736         7528 
  113200    900.58615    38414 1.9097164e-12        30864         7550 
  113600    905.64419    38571 1.9175344e-12        30993         7578 
  114000    911.21997    38742 1.9253536e-12        31135         7607 
  114400    917.82653    38887 1.9331746e-12        31258         7629 
  114800    923.85773    39040 1.9409971e-12        31383         7657 
  115200    930.08992    39225 1.9488216e-12        31533         7692 
  115600    935.26372    39383 1.9566487e-12        31666         7717 
  116000    940.63429    39515 1.9644771e-12        31767         7748 
  116400    946.10928    39672 1.9723071e-12        31898         7774 
  116800    951.36732    39835 1.9801391e-12        32030         7805 
  117200    956.61976    40013 1.9879736e-12        32165         7848 
  117600    961.91533    40185 1.9958105e-12        32305         7880 
  118000    967.23879    40342 2.0036494e-12        32435         7907 
  118400    972.28775    40501 2.0114886e-12        32570         7931 
  118800    977.46497    40669 2.0193295e-12        32711         7958 
  119200    983.24119    40810 2.0271718e-12        32830         7980 
  119600     988.7983    40969 2.035017e-12        32951         8018 
  120000    994.29644    41133 2.0428635e-12        33077         8056 
  120400    999.78276    41334 2.0507113e-12        33240         8094 
  120800    1005.3449    41489 2.0585621e-12        33373         8116 
  121200     1010.729    41653 2.0664147e-12        33515         8138 
  121600    1016.2693    41811 2.0742703e-12        33646         8165 
  122000    1021.9575    41973 2.0821282e-12        33776         8197 
  122400    1027.5168    42133 2.0899871e-12        33897         8236 
  122800    1033.0686    42284 2.0978471e-12        34028         8256 
  123200    1038.8037    42464 2.1057079e-12        34176         8288 
  123600    1044.5267    42623 2.1135712e-12        34312         8311 
  124000    1050.2858    42764 2.1214355e-12        34432         8332 
  124400    1055.7758    42938 2.1293021e-12        34585         8353 
  124800    1061.0583    43106 2.1371696e-12        34711         8395 
  125200    1066.7911    43255 2.1450393e-12        34837         8418 
  125600    1072.7546    43425 2.1529098e-12        34980         8445 
  126000    1078.7833    43588 2.1607824e-12        35122         8466 
  126400     1084.779    43740 2.1686564e-12        35246         8494 
  126800     1090.723    43893 2.1765319e-12        35377         8516 
  127200    1096.7242    44036 2.1844091e-12        35491         8545 
  127600    1102.8787    44188 2.1922893e-12        35606         8582 
  128000    1108.8152    44334 2.2001712e-12        35724         8610 
  128400    1117.2987    44494 2.2080538e-12        35856         8638 
  128800    1127.2061    44644 2.2159412e-12        35980         8664 
  129200    1136.8529    44813 2.2238299e-12        36123         8690 
  129600    1146.4681    44968 2.2317191e-12        36244         8724 
  130000    1156.5156    45116 2.2396108e-12        36365         8751 
  130400    1165.5347    45288 2.2475039e-12        36513         8775 
  130800    1174.7203    45450 2.2553998e-12        36647         8803 
  131200    1184.2368    45615 2.2632969e-12        36789         8826 
  131600    1193.9269    45738 2.2711964e-12        36881         8857 
  132000    1203.6497    45892 2.2790968e-12        37006         8886 
  132400    1213.3202    46082 2.2869992e-12        37153         8929 
  132800     1222.687    46210 2.2949035e-12        37264         8946 
  133200    1231.9484    46372 2.302809e-12        37398         8974 
  133600    1241.1996    46515 2.3107159e-12        37510         9005 
  134000    1250.4213    46667 2.3186254e-12        37626         9041 
  134400    1259.4594    46817 2.3265361e-12        37758         9059 
  134800    1268.4054    46985 2.3344477e-12        37894         9091 
  135200    1277.5976    47159 2.3423621e-12        38035         9124 
  135600    1286.4381    47301 2.3502785e-12        38154         9147 
  136000      1295.11    47459 2.3581969e-12        38286         9173 
  136400     1303.494    47612 2.366115e-12        38412         9200 
  136800     1312.497    47755 2.3740349e-12        38524         9231 
  137200     1321.334    47900 2.3819565e-12        38638         9262 
  137600    1330.2571    48052 2.3898798e-12        38759         9293 
  138000      1339.42    48236 2.3978031e-12        38910         9326 
  138400    1348.4024    48387 2.4057272e-12        39031         9356 
  138800    1357.1632    48555 2.4136542e-12        39170         9385 
  139200    1366.1599    48709 2.4215831e-12        39299         9410 
  139600    1375.2894    48868 2.4295126e-12        39432         9436 
  140000     1384.526    49036 2.4374431e-12        39573         9463 
  140400    1393.4456    49196 2.4453743e-12        39706         9490 
  140800    1402.3041    49345 2.4533061e-12        39824         9521 
  141200    1411.2654    49496 2.4612415e-12        39943         9553 
  141600    1419.6877    49668 2.469178e-12        40086         9582 
  142000    1427.9902    49810 2.4771148e-12        40198         9612 
  142400    1436.2467    49979 2.4850522e-12        40337         9642 
  142800    1444.7284    50172 2.4929899e-12        40499         9673 
  143200    1453.3022    50334 2.5009309e-12        40630         9704 
  143600    1461.8538    50513 2.5088721e-12        40773         9740 
  144000    1470.5253    50678 2.5168147e-12        40909         9769 
  144400     1478.868    50845 2.5247577e-12        41048         9797 
  144800    1487.4273    51003 2.5327019e-12        41178         9825 
  145200     1495.868    51150 2.5406462e-12        41299         9851 
  145600    1504.3276    51305 2.5485904e-12        41428         9877 
  146000    1512.7359    51471 2.5565379e-12        41568         9903 
  146400    1521.2323    51648 2.5644843e-12        41718         9930 
  146800    1529.6977    51831 2.5724334e-12        41865         9966 
  147200    1538.1481    51987 2.5803832e-12        41991         9996 
  147600    1546.5537    52143 2.5883336e-12        42128        10015 
  148000    1555.4437    52305 2.5962854e-12        42264        10041 
  148400    1565.0066    52441 2.6042378e-12        42378        10063 
  148800    1573.5225    52627 2.6121924e-12        42536        10091 
  149200    1581.9806    52820 2.6201468e-12        42690        10130 
  149600    1590.8099    52970 2.6281022e-12        42820        10150 
  150000    1599.3931    53128 2.6360609e-12        42941        10187 
  150400    1607.9705    53311 2.6440201e-12        43087        10224 
  150800    1616.5817    53453 2.6519815e-12        43211        10242 
  151200    1625.1611    53611 2.6599456e-12        43340        10271 
  151600     1633.691    53768 2.6679105e-12        43467        10301 
  152000     1642.601    53923 2.675875e-12        43597        10326 
  152400    1651.1717    54098 2.6838403e-12        43739        10359 
  152800    1659.9186    54264 2.6918061e-12        43882        10382 
  153200    1668.6613    54428 2.6997748e-12        44014        10414 
  153600    1677.7537    54590 2.7077453e-12        44145        10445 
  154000    1686.6101    54746 2.715719e-12        44277        10469 
  154400    1695.6698    54878 2.723694e-12        44381        10497 
  154800    1704.4127    55028 2.7316715e-12        44509        10519 
  155200    1713.2785    55194 2.7396503e-12        44644        10550 
  155600    1722.2915    55353 2.7476306e-12        44780        10573 
  156000    1731.1515    55526 2.7556135e-12        44926        10600 
  156400     1740.178    55681 2.7635993e-12        45051        10630 
  156800    1749.1768    55845 2.7715861e-12        45184        10661 
  157200    1758.3168    56005 2.7795762e-12        45314        10691 
  157600    1767.5198    56184 2.7875689e-12        45457        10727 
  158000    1776.7308    56353 2.7955636e-12        45606        10747 
  158400    1786.1251    56517 2.8035601e-12        45745        10772 
  158800    1795.3875    56694 2.8115614e-12        45888        10806 
  159200    1804.6658    56854 2.819565e-12        46017        10837 
  159600    1814.3008    57014 2.8275716e-12        46155        10859 
  160000    1824.2885    57189 2.8355822e-12        46306        10883 
  160400    1834.2592    57367 2.8435961e-12        46453        10914 
  160800    1843.9974    57512 2.851614e-12        46578        10934 
  161200    1852.3072    57674 2.8596343e-12        46711        10963 
  161600    1860.5651    57855 2.8676563e-12        46856        10999 
  162000    1869.0989    58014 2.8756822e-12        46989        11025 
  162400    1877.8203    58184 2.8837108e-12        47127        11057 
  162800    1886.5668    58345 2.8917411e-12        47272        11073 
  163200     1895.432    58512 2.8997758e-12        47408        11104 
  163600      1904.22    58669 2.907814e-12        47531        11138 
  164000    1913.0283    58839 2.9158541e-12        47677        11162 
  164400     1921.727    59009 2.9238973e-12        47817        11192 
  164800    1930.5655    59173 2.9319426e-12        47951        11222 
  165200     1939.378    59331 2.9399908e-12        48083        11248 
  165600     1948.038    59483 2.948041e-12        48207        11276 
  166000    1957.1918    59652 2.9560949e-12        48349        11303 
  166400     1965.958    59802 2.9641526e-12        48472        11330 
  166800    1974.5764    59980 2.972212e-12        48628        11352 
  167200    1983.5349    60167 2.9802746e-12        48790        11377 
  167600    1992.4423    60350 2.9883386e-12        48949        11401 
  168000    2001.6264    60529 2.9964075e-12        49104        11425 
  168400    2010.6723    60696 3.0044795e-12        49245        11451 
  168800    2020.0598    60858 3.0125541e-12        49383        11475 
  169200    2029.1768    60998 3.0206309e-12        49507        11491 
  169600    2038.7184    61176 3.0287118e-12        49654        11522 
  170000    2047.8511    61333 3.036795e-12        49788        11545 
  170400      2057.82    61501 3.0448824e-12        49927        11574 
  170800    2068.5505    61673 3.0529705e-12        50073        11600 
  171200    2078.2162    61839 3.0610613e-12        50206        11633 
  171600    2087.5799    62010 3.0691539e-12        50358        11652 
  172000    2097.2475    62181 3.0772487e-12        50504        11677 
  172400    2106.8874    62318 3.0853454e-12        50611        11707 
  172800    2116.6019    62492 3.0934445e-12        50761        11731 
  173200    2126.4776    62635 3.1015451e-12        50882        11753 
  173600    2136.1674    62793 3.1096475e-12        51019        11774 
  174000    2145.7406    62938 3.1177511e-12        51144        11794 
  174400    2155.1718    63103 3.1258581e-12        51285        11818 
  174800    2164.6334    63247 3.1339679e-12        51401        11846 
  175200    2174.1307    63428 3.1420798e-12        51556        11872 
  175600    2183.7249    63577 3.1501943e-12        51679        11898 
  176000    2193.4832    63732 3.1583108e-12        51809        11923 
  176400    2203.1927    63888 3.1664289e-12        51931        11957 
  176800    2212.7994    64066 3.174548e-12        52078        11988 
  177200     2222.356    64231 3.1826688e-12        52222        12009 
  177600    2232.2125    64384 3.1907914e-12        52347        12037 
  178000    2241.7931    64563 3.1989149e-12        52495        12068 
  178400    2251.4359    64737 3.2070409e-12        52647        12090 
  178800    2261.2835    64887 3.2151682e-12        52772        12115 
  179200    2270.7868    65042 3.2232974e-12        52896        12146 
  179600    2280.7829    65201 3.2314281e-12        53038        12163 
  180000    2290.6054    65385 3.2395619e-12        53192        12193 
  180400    2300.6209    65565 3.2476964e-12        53341        12224 
  180800    2310.3326    65722 3.2558317e-12        53469        12253 
  181200    2319.9386    65903 3.2639697e-12        53623        12280 
  181600    2329.6362    66083 3.2721094e-12        53782        12301 
  182000    2339.2724    66236 3.2802514e-12        53904        12332 
  182400    2348.8314    66381 3.2883942e-12        54028        12353 
  182800    2358.4738    66560 3.2965392e-12        54174        12386 
  183200    2368.4321    66742 3.3046845e-12        54320        12422 
  183600    2378.3106    66888 3.3128324e-12        54436        12452 
  184000    2388.1446    67056 3.3209821e-12        54581        12475 
  184400    2397.7434    67203 3.3291335e-12        54704        12499 
  184800    2407.1954    67327 3.337286e-12        54813        12514 
  185200    2417.1018    67500 3.3454391e-12        54961        12539 
  185600    2426.9538    67663 3.3535943e-12        55099        12564 
  186000    2436.7697    67836 3.3617489e-12        55246        12590 
  186400    2446.8096    67995 3.3699061e-12        55383        12612 
  186800    2456.9265    68147 3.3780652e-12        55510        12637 
  187200    2466.9912    68324 3.3862257e-12        55659        12665 
  187600    2477.0619    68487 3.3943879e-12        55800        12687 
  188000    2487.3061    68660 3.4025518e-12        55952        12708 
  188400    2497.3384    68837 3.4107175e-12        56100        12737 
  188800    2507.2712    68985 3.4188859e-12        56222        12763 
  189200     2517.277    69155 3.4270543e-12        56368        12787 
  189600    2527.4141    69343 3.4352243e-12        56529        12814 
  190000    2537.5001    69524 3.443395e-12        56680        12844 
  190400    2547.5892    69670 3.4515679e-12        56798        12872 
  190800    2557.6012    69832 3.4597416e-12        56938        12894 
  191200    2567.6235    69995 3.4679164e-12        57073        12922 
  191600      2577.97    70156 3.4760927e-12        57212        12944 
  192000    2588.2416    70333 3.4842678e-12        57361        12972 
Loop time of 2588.24 on 1 procs for 192000 steps with 70333 atoms

Performance: 57683638.383 tau/day, 74.182 timesteps/s
100.0% CPU use with 1 MPI tasks x no OpenMP threads

MPI task timing breakdown:
Section |  min time  |  avg time  |  max time  |%varavg| %total
---------------------------------------------------------------
Pair    | 845.12     | 845.12     | 845.12     |   0.0 | 32.65
Neigh   | 634.32     | 634.32     | 634.32     |   0.0 | 24.51
Comm    | 32.899     | 32.899     | 32.899     |   0.0 |  1.27
Output  | 4.5278     | 4.5278     | 4.5278     |   0.0 |  0.17
Modify  | 998.57     | 998.57     | 998.57     |   0.0 | 38.58
Other   |            | 72.81      |            |       |  2.81

Nlocal:    70333 ave 70333 max 70333 min
Histogram: 1 0 0 0 0 0 0 0 0 0
Nghost:    0 ave 0 max 0 min
Histogram: 1 0 0 0 0 0 0 0 0 0
Neighs:    454622 ave 454622 max 454622 min
Histogram: 1 0 0 0 0 0 0 0 0 0

Total # of neighbors = 454622
Ave neighs/atom = 6.46385
Neighbor list builds = 13890
Dangerous builds = 0

Total wall time: 0:43:08
