  Granular Flow Simulation 

       44 atoms 
       5 atom types 
       5 nutrients

   0.000000e-04   1.000000e-04  xlo xhi 
   0.000000e-04   4.000000e-05  ylo yhi 
   0.000000e-04   1.000000e-04  zlo zhi 

 Atoms

     1 1 1.0e-6 150 0.5e-5 0.5e-5 1e-6 1.0e-6
     2 1 1.0e-6 150 1.5e-5 0.5e-5 1e-6 1.0e-6
     3 1 1.0e-6 150 2.5e-5 0.5e-5 1e-6 1.0e-6
     4 1 1.0e-6 150 3.5e-5 0.5e-5 1e-6 1.0e-6
     5 1 1.0e-6 150 4.5e-5 0.5e-5 1e-6 1.0e-6
     6 1 1.0e-6 150 5.5e-5 0.5e-5 1e-6 1.0e-6
     7 1 1.0e-6 150 6.5e-5 0.5e-5 1e-6 1.0e-6
     8 1 1.0e-6 150 7.5e-5 0.5e-5 1e-6 1.0e-6
     9 1 1.0e-6 150 8.5e-5 0.5e-5 1e-6 1.0e-6
     10 1 1.0e-6 150 9.5e-5 0.5e-5 1e-6 1.0e-6
     11 1 1.0e-6 150 0.5e-5 1.5e-5 1e-6 1.0e-6
     12 1 1.0e-6 150 1.5e-5 1.5e-5 1e-6 1.0e-6
     13 1 1.0e-6 150 2.5e-5 1.5e-5 1e-6 1.0e-6
     14 1 1.0e-6 150 3.5e-5 1.5e-5 1e-6 1.0e-6
     15 1 1.0e-6 150 4.5e-5 1.5e-5 1e-6 1.0e-6
     16 1 1.0e-6 150 5.5e-5 1.5e-5 1e-6 1.0e-6
     17 1 1.0e-6 150 6.5e-5 1.5e-5 1e-6 1.0e-6
     18 1 1.0e-6 150 7.5e-5 1.5e-5 1e-6 1.0e-6
     19 1 1.0e-6 150 8.5e-5 1.5e-5 1e-6 1.0e-6
     20 1 1.0e-6 150 9.5e-5 1.5e-5 1e-6 1.0e-6
     21 1 1.0e-6 150 0.5e-5 2.5e-5 1e-6 1.0e-6
     22 1 1.0e-6 150 1.5e-5 2.5e-5 1e-6 1.0e-6
     23 1 1.0e-6 150 2.5e-5 2.5e-5 1e-6 1.0e-6
     24 1 1.0e-6 150 3.5e-5 2.5e-5 1e-6 1.0e-6
     25 1 1.0e-6 150 4.5e-5 2.5e-5 1e-6 1.0e-6
     26 1 1.0e-6 150 5.5e-5 2.5e-5 1e-6 1.0e-6
     27 1 1.0e-6 150 6.5e-5 2.5e-5 1e-6 1.0e-6
     28 1 1.0e-6 150 7.5e-5 2.5e-5 1e-6 1.0e-6
     29 1 1.0e-6 150 8.5e-5 2.5e-5 1e-6 1.0e-6
     30 1 1.0e-6 150 9.5e-5 2.5e-5 1e-6 1.0e-6
     31 1 1.0e-6 150 0.5e-5 3.5e-5 1e-6 1.0e-6
     32 1 1.0e-6 150 1.5e-5 3.5e-5 1e-6 1.0e-6
     33 1 1.0e-6 150 2.5e-5 3.5e-5 1e-6 1.0e-6
     34 1 1.0e-6 150 3.5e-5 3.5e-5 1e-6 1.0e-6
     35 1 1.0e-6 150 4.5e-5 3.5e-5 1e-6 1.0e-6
     36 1 1.0e-6 150 5.5e-5 3.5e-5 1e-6 1.0e-6
     37 1 1.0e-6 150 6.5e-5 3.5e-5 1e-6 1.0e-6
     38 1 1.0e-6 150 7.5e-5 3.5e-5 1e-6 1.0e-6
     39 1 1.0e-6 150 8.5e-5 3.5e-5 1e-6 1.0e-6
     40 1 1.0e-6 150 9.5e-5 3.5e-5 1e-6 1.0e-6
     41 2 1.0e-8 150 0.6e-5 0.5e-5 1e-6 1.0e-8
     42 3 1.0e-8 150 9.6e-5 3.6e-5 1e-6 1.0e-8
     43 4 1.0e-8 150 9.8e-5 3.5e-5 1e-6 1.0e-8
     44 5 1.0e-8 150 8.8e-5 3.5e-5 1e-6 1.0e-8

 Nutrients

     1 sub l 1e-4 1e-4 1e-4 1e-4 1e-4 1e-4 1e-4
     2 o2 l 1e-4 1e-4 1e-4 1e-4 1e-4 1e-4 1e-4
     3 no2 l 1e-4 1e-4 1e-4 1e-4 1e-4 1e-4 1e-4
     4 no3 l 1e-4 1e-4 1e-4 1e-4 1e-4 1e-4 1e-4
     5 nh4 l 1e-4 1e-4 1e-4 1e-4 1e-4 1e-4 1e-4

 Diffusion Coeffs
    
     sub 1.6e-9
     o2 0
     no2 0
     no3 0
     nh4 0

 Type Name

     1 het
     2 aob
     3 nob
     4 eps
     5 dead

 Ks
     
     het 3.5e-5 0 0 0 0
     aob 0 0 0 0 0
     nob 0 0 0 0 0
     eps 0 0 0 0 0
     dead 0 0 0 0 0

Growth Rate

     het 0.000277778
     aob 0
     nob 0
     eps 0
     dead 0

 Yield
    
     het 0.61
     aob 0.33
     nob 0.083
     eps 0.18
     dead 0

 Maintenance
 
     het 0
     aob 0
     nob 0
     eps 0
     dead 0

 Decay

     het 0.000003694
     aob 0.00000127314
     nob 0.00000127314
     eps 0.00000196759
     dead 0


