  Granular Flow Simulation 

       0 atoms 
       3 atom types 
       2 nutrients

   0.000000e-04   1.000000e-04  xlo xhi 
   0.000000e-04   4.000000e-05  ylo yhi 
   0.000000e-04   1.000000e-04  zlo zhi 

 Atoms


 Nutrients

     1 sub l pp pp nd 1e-4 1e-4
     2 o2 l pp pp nd 1e-4 1e-4

 Diffusion Coeffs
    
     sub 1.6e-9
     o2 0

 Type Name

     1 het
     2 eps
     3 dead

 Ks
     
     het 3.5e-5 0
     eps 0 0
     dead 0 0

Growth Rate

     het 0.000277778
     eps 0
     dead 0

 Yield
    
     het 0.61
     eps 0.18
     dead 0

 Maintenance
 
     het 0
     eps 0
     dead 0

 Decay

     het 0.000003694
     eps 0.00000196759
     dead 0


