LAMMPS (20 Nov 2019)
# NUFEB simulation

units si
atom_style	bio
atom_modify	map array sort 1000 5.0e-7
boundary	pp pp ff
newton		off
processors 2 2 1

comm_modify	vel yes
read_data_bio atom.in
  orthogonal box = (0 0 0) to (0.0001 0.0001 0.0001)
  2 by 2 by 1 MPI processor grid
  reading atoms ...
  0 atoms
  5 nutrients

##############Define initial particle distribution##############

lattice sc 1e-6 origin 0 0 0
Lattice spacing in x,y,z = 1e-06 1e-06 1e-06
region reg block 0 100 0 100 0 1

create_atoms 1 random 100 3124 reg
Created 100 atoms
  create_atoms CPU = 3.4872e-05 secs
create_atoms 2 random 100 1321 reg
Created 100 atoms
  create_atoms CPU = 2.728e-05 secs
create_atoms 3 random 100 52342 reg
Created 100 atoms
  create_atoms CPU = 1.7683e-05 secs
create_atoms 4 random 1 13212 reg
Created 1 atoms
  create_atoms CPU = 1.1743e-05 secs
create_atoms 5 random 1 41231 reg
Created 1 atoms
  create_atoms CPU = 1.1512e-05 secs

set type 1 density 32
  100 settings made for density
set type 1 diameter 1.3e-6
  100 settings made for diameter
set type 1 mass 3.68e-17
  100 settings made for mass

set type 2 density 32
  100 settings made for density
set type 2 diameter 1.3e-6
  100 settings made for diameter
set type 2 mass 3.68e-17
  100 settings made for mass

set type 3 density 32
  100 settings made for density
set type 3 diameter 1.3e-6
  100 settings made for diameter
set type 3 mass 3.68e-17
  100 settings made for mass

set type 4 density 32
  1 settings made for density
set type 4 diameter 1.3e-6
  1 settings made for diameter
set type 4 mass 3.68e-17
  1 settings made for mass

set type 5 density 32
  1 settings made for density
set type 5 diameter 1.3e-6
  1 settings made for diameter
set type 5 mass 3.68e-17
  1 settings made for mass

group HET type 1
100 atoms in group HET
group AOB type 2
100 atoms in group AOB
group NOB type 3
100 atoms in group NOB
group EPS type 4
1 atoms in group EPS
group DEAD type 5
1 atoms in group DEAD

neighbor        5e-7 bin
neigh_modify    delay 0 one 5000

##############Define DEM Variables&Commands##############

pair_style  gran/hooke/history 1e-4 NULL 1e-4 NULL 0 1
pair_coeff  * *

timestep 1e-3

fix 1 all nve/limit 1e-8
fix fv all viscous 1e-8

fix zw all wall/gran hooke/history 1e-4 NULL 1e-4 NULL 0 1 zplane 0.0e-4 2e-04

variable kanc equal 5e+8

fix zwa all walladh v_kanc zplane  0.0 2e-04

variable ke equal 5e+8
#fix j1 all epsadh 1 v_ke 1

##############Define IBm Variables##############

#variables used in fix eps_extract
variable EPSdens equal 30
variable EPSratio equal 1.10

#variables used in fix division
variable divDia equal 1.36e-6

#variables used in fix kinetics
variable diffT equal 1e-4
variable tol equal 5e-7
variable layer equal 2e-5

#variables used in fix death
variable deadDia equal 5e-7

##############Define IBm Commands##############

fix k1 all kinetics 1 25 25 25 v_diffT v_layer niter 20000
fix kgm all kinetics/growth/monod epsdens 30 etahet 0.6
fix g1 all kinetics/diffusion v_tol pp pp nd kg bulk 2.31e-7 1.25e-3 0.1
fix d1 all divide 1 v_EPSdens v_divDia 41341 demflag 0
fix e1 HET eps_extract 1 v_EPSratio v_EPSdens 5234 demflag 0
fix d2 all death 1 v_deadDia demflag 0

##############Define IBm Computes##############

compute myNtypes all ntypes
compute myMass all biomass
compute myCon all avg_con

##############Simulation Output##############

thermo_style    custom step cpu atoms c_myNtypes[*]
dump du0 all bio 18006 biomass ntypes bulk avg_con
dump du2 all grid 90030 grid_%_*.vti con
dump du3 all vtk 90030 snapshot_*.vtu id type diameter x y z
thermo 3001
thermo_modify   lost ignore

##############Define Bio-loop and DEM-subloop##############

run 14400 pre no post no every 1 "fix_modify k1 demflag 1" "fix_modify d2 demflag 1" "fix_modify d1 demflag 1" "fix_modify e1 demflag 1" "timestep 1e-3" "run 3000 pre no post no" "timestep 1200" "fix_modify k1 demflag 0" "fix_modify d2 demflag 0" "fix_modify d1 demflag 0" "fix_modify e1 demflag 0"
Neighbor list info ...
  update every 1 steps, delay 0 steps, check yes
  max neighbors/atom: 5000, page size: 100000
  master list distance cutoff = 1.8e-06
  ghost atom cutoff = 1.8e-06
  binsize = 9e-07, bins = 112 112 112
  1 neighbor lists, perpetual/occasional/extra = 1 0 0
  (1) pair gran/hooke/history, perpetual
      attributes: half, newton off, size, history
      pair build: half/size/bin/newtoff
      stencil: half/bin/3d/newtoff
      bin: standard
Per MPI rank memory allocation (min/avg/max) = 12.44 | 12.55 | 12.67 Mbytes
Step CPU Atoms c_myNtypes[1] c_myNtypes[2] c_myNtypes[3] c_myNtypes[4] c_myNtypes[5] c_myNtypes[6] 
       0            0      302            0          100          100          100            1            1 
number of iterations: 12644 
       1    1.9380883      302            0          100          100          100            1            1 
Loop time of 1.9381 on 4 procs for 1 steps with 302 atoms

fix_modify k1 demflag 1
fix_modify d2 demflag 1
fix_modify d1 demflag 1
fix_modify e1 demflag 1
timestep 1e-3
run 3000 pre no post no
Step CPU Atoms c_myNtypes[1] c_myNtypes[2] c_myNtypes[3] c_myNtypes[4] c_myNtypes[5] c_myNtypes[6] 
       1            0      302            0          100          100          100            1            1 
    3001  0.030522469      302            0          100          100          100            1            1 
Loop time of 0.0305518 on 4 procs for 3000 steps with 302 atoms

timestep 1200
fix_modify k1 demflag 0
fix_modify d2 demflag 0
fix_modify d1 demflag 0
fix_modify e1 demflag 0
Step CPU Atoms c_myNtypes[1] c_myNtypes[2] c_myNtypes[3] c_myNtypes[4] c_myNtypes[5] c_myNtypes[6] 
    3001            0      302            0          100          100          100            1            1 
number of iterations: 2265 
    3002   0.36013528      302            0          100          100          100            1            1 
Loop time of 0.360149 on 4 procs for 1 steps with 302 atoms

fix_modify k1 demflag 1
fix_modify d2 demflag 1
fix_modify d1 demflag 1
fix_modify e1 demflag 1
timestep 1e-3
run 3000 pre no post no
Step CPU Atoms c_myNtypes[1] c_myNtypes[2] c_myNtypes[3] c_myNtypes[4] c_myNtypes[5] c_myNtypes[6] 
    3002            0      302            0          100          100          100            1            1 
    6002  0.030797475      302            0          100          100          100            1            1 
Loop time of 0.0308227 on 4 procs for 3000 steps with 302 atoms

timestep 1200
fix_modify k1 demflag 0
fix_modify d2 demflag 0
fix_modify d1 demflag 0
fix_modify e1 demflag 0
Step CPU Atoms c_myNtypes[1] c_myNtypes[2] c_myNtypes[3] c_myNtypes[4] c_myNtypes[5] c_myNtypes[6] 
    6002            0      302            0          100          100          100            1            1 
number of iterations: 11705 
    6003    1.8274448      302            0          100          100          100            1            1 
Loop time of 1.82746 on 4 procs for 1 steps with 302 atoms

fix_modify k1 demflag 1
fix_modify d2 demflag 1
fix_modify d1 demflag 1
fix_modify e1 demflag 1
timestep 1e-3
run 3000 pre no post no
Step CPU Atoms c_myNtypes[1] c_myNtypes[2] c_myNtypes[3] c_myNtypes[4] c_myNtypes[5] c_myNtypes[6] 
    6003            0      302            0          100          100          100            1            1 
    9003  0.029655181      302            0          100          100          100            1            1 
Loop time of 0.0296784 on 4 procs for 3000 steps with 302 atoms

timestep 1200
fix_modify k1 demflag 0
fix_modify d2 demflag 0
fix_modify d1 demflag 0
fix_modify e1 demflag 0
Step CPU Atoms c_myNtypes[1] c_myNtypes[2] c_myNtypes[3] c_myNtypes[4] c_myNtypes[5] c_myNtypes[6] 
    9003            0      302            0          100          100          100            1            1 
number of iterations: 9949 
    9004    1.6376701      302            0          100          100          100            1            1 
Loop time of 1.63772 on 4 procs for 1 steps with 302 atoms

fix_modify k1 demflag 1
fix_modify d2 demflag 1
fix_modify d1 demflag 1
fix_modify e1 demflag 1
timestep 1e-3
run 3000 pre no post no
Step CPU Atoms c_myNtypes[1] c_myNtypes[2] c_myNtypes[3] c_myNtypes[4] c_myNtypes[5] c_myNtypes[6] 
    9004            0      302            0          100          100          100            1            1 
   12004  0.054410186      302            0          100          100          100            1            1 
Loop time of 0.0544399 on 4 procs for 3000 steps with 302 atoms

timestep 1200
fix_modify k1 demflag 0
fix_modify d2 demflag 0
fix_modify d1 demflag 0
fix_modify e1 demflag 0
Step CPU Atoms c_myNtypes[1] c_myNtypes[2] c_myNtypes[3] c_myNtypes[4] c_myNtypes[5] c_myNtypes[6] 
   12004            0      302            0          100          100          100            1            1 
number of iterations: 9180 
   12005    1.6439206      302            0          100          100          100            1            1 
Loop time of 1.64394 on 4 procs for 1 steps with 302 atoms

fix_modify k1 demflag 1
fix_modify d2 demflag 1
fix_modify d1 demflag 1
fix_modify e1 demflag 1
timestep 1e-3
run 3000 pre no post no
Step CPU Atoms c_myNtypes[1] c_myNtypes[2] c_myNtypes[3] c_myNtypes[4] c_myNtypes[5] c_myNtypes[6] 
   12005            0      302            0          100          100          100            1            1 
   15005   0.02961397      302            0          100          100          100            1            1 
Loop time of 0.02964 on 4 procs for 3000 steps with 302 atoms

timestep 1200
fix_modify k1 demflag 0
fix_modify d2 demflag 0
fix_modify d1 demflag 0
fix_modify e1 demflag 0
Step CPU Atoms c_myNtypes[1] c_myNtypes[2] c_myNtypes[3] c_myNtypes[4] c_myNtypes[5] c_myNtypes[6] 
   15005            0      302            0          100          100          100            1            1 
number of iterations: 8642 
   15006    1.5771693      302            0          100          100          100            1            1 
Loop time of 1.57719 on 4 procs for 1 steps with 302 atoms

fix_modify k1 demflag 1
fix_modify d2 demflag 1
fix_modify d1 demflag 1
fix_modify e1 demflag 1
timestep 1e-3
run 3000 pre no post no
Step CPU Atoms c_myNtypes[1] c_myNtypes[2] c_myNtypes[3] c_myNtypes[4] c_myNtypes[5] c_myNtypes[6] 
   15006            0      302            0          100          100          100            1            1 
   18006  0.031974765      302            0          100          100          100            1            1 
Loop time of 0.0319938 on 4 procs for 3000 steps with 302 atoms

timestep 1200
fix_modify k1 demflag 0
fix_modify d2 demflag 0
fix_modify d1 demflag 0
fix_modify e1 demflag 0
Step CPU Atoms c_myNtypes[1] c_myNtypes[2] c_myNtypes[3] c_myNtypes[4] c_myNtypes[5] c_myNtypes[6] 
   18006            0      302            0          100          100          100            1            1 
number of iterations: 8211 
   18007    1.4107566      402            0          200          100          100            1            1 
Loop time of 1.41077 on 4 procs for 1 steps with 402 atoms

fix_modify k1 demflag 1
fix_modify d2 demflag 1
fix_modify d1 demflag 1
fix_modify e1 demflag 1
timestep 1e-3
run 3000 pre no post no
Step CPU Atoms c_myNtypes[1] c_myNtypes[2] c_myNtypes[3] c_myNtypes[4] c_myNtypes[5] c_myNtypes[6] 
   18007            0      402            0          200          100          100            1            1 
   21007  0.041630768      402            0          200          100          100            1            1 
Loop time of 0.0416736 on 4 procs for 3000 steps with 402 atoms

timestep 1200
fix_modify k1 demflag 0
fix_modify d2 demflag 0
fix_modify d1 demflag 0
fix_modify e1 demflag 0
Step CPU Atoms c_myNtypes[1] c_myNtypes[2] c_myNtypes[3] c_myNtypes[4] c_myNtypes[5] c_myNtypes[6] 
   21007            0      402            0          200          100          100            1            1 
number of iterations: 7843 
   21008    1.4974594      402            0          200          100          100            1            1 
Loop time of 1.49748 on 4 procs for 1 steps with 402 atoms

fix_modify k1 demflag 1
fix_modify d2 demflag 1
fix_modify d1 demflag 1
fix_modify e1 demflag 1
timestep 1e-3
run 3000 pre no post no
Step CPU Atoms c_myNtypes[1] c_myNtypes[2] c_myNtypes[3] c_myNtypes[4] c_myNtypes[5] c_myNtypes[6] 
   21008            0      402            0          200          100          100            1            1 
   24008  0.041696648      402            0          200          100          100            1            1 
Loop time of 0.0417158 on 4 procs for 3000 steps with 402 atoms

timestep 1200
fix_modify k1 demflag 0
fix_modify d2 demflag 0
fix_modify d1 demflag 0
fix_modify e1 demflag 0
Step CPU Atoms c_myNtypes[1] c_myNtypes[2] c_myNtypes[3] c_myNtypes[4] c_myNtypes[5] c_myNtypes[6] 
   24008            0      402            0          200          100          100            1            1 
number of iterations: 7516 
   24009    1.3131942      502            0          200          200          100            1            1 
Loop time of 1.31321 on 4 procs for 1 steps with 502 atoms

fix_modify k1 demflag 1
fix_modify d2 demflag 1
fix_modify d1 demflag 1
fix_modify e1 demflag 1
timestep 1e-3
run 3000 pre no post no
Step CPU Atoms c_myNtypes[1] c_myNtypes[2] c_myNtypes[3] c_myNtypes[4] c_myNtypes[5] c_myNtypes[6] 
   24009            0      502            0          200          200          100            1            1 
   27009  0.048453842      502            0          200          200          100            1            1 
Loop time of 0.0484728 on 4 procs for 3000 steps with 502 atoms

timestep 1200
fix_modify k1 demflag 0
fix_modify d2 demflag 0
fix_modify d1 demflag 0
fix_modify e1 demflag 0
Step CPU Atoms c_myNtypes[1] c_myNtypes[2] c_myNtypes[3] c_myNtypes[4] c_myNtypes[5] c_myNtypes[6] 
   27009            0      502            0          200          200          100            1            1 
number of iterations: 7220 
   27010    1.4190756      502            0          200          200          100            1            1 
Loop time of 1.41909 on 4 procs for 1 steps with 502 atoms

fix_modify k1 demflag 1
fix_modify d2 demflag 1
fix_modify d1 demflag 1
fix_modify e1 demflag 1
timestep 1e-3
run 3000 pre no post no
Step CPU Atoms c_myNtypes[1] c_myNtypes[2] c_myNtypes[3] c_myNtypes[4] c_myNtypes[5] c_myNtypes[6] 
   27010            0      502            0          200          200          100            1            1 
   30010  0.049343978      502            0          200          200          100            1            1 
Loop time of 0.0493644 on 4 procs for 3000 steps with 502 atoms

timestep 1200
fix_modify k1 demflag 0
fix_modify d2 demflag 0
fix_modify d1 demflag 0
fix_modify e1 demflag 0
Step CPU Atoms c_myNtypes[1] c_myNtypes[2] c_myNtypes[3] c_myNtypes[4] c_myNtypes[5] c_myNtypes[6] 
   30010            0      502            0          200          200          100            1            1 
number of iterations: 6948 
   30011    1.6426246      502            0          200          200          100            1            1 
Loop time of 1.64268 on 4 procs for 1 steps with 502 atoms

fix_modify k1 demflag 1
fix_modify d2 demflag 1
fix_modify d1 demflag 1
fix_modify e1 demflag 1
timestep 1e-3
run 3000 pre no post no
Step CPU Atoms c_myNtypes[1] c_myNtypes[2] c_myNtypes[3] c_myNtypes[4] c_myNtypes[5] c_myNtypes[6] 
   30011            0      502            0          200          200          100            1            1 
   33011  0.069332658      502            0          200          200          100            1            1 
Loop time of 0.0693604 on 4 procs for 3000 steps with 502 atoms

timestep 1200
fix_modify k1 demflag 0
fix_modify d2 demflag 0
fix_modify d1 demflag 0
fix_modify e1 demflag 0
Step CPU Atoms c_myNtypes[1] c_myNtypes[2] c_myNtypes[3] c_myNtypes[4] c_myNtypes[5] c_myNtypes[6] 
   33011            0      502            0          200          200          100            1            1 
number of iterations: 6697 
   33012    1.6094982      502            0          200          200          100            1            1 
Loop time of 1.60952 on 4 procs for 1 steps with 502 atoms

fix_modify k1 demflag 1
fix_modify d2 demflag 1
fix_modify d1 demflag 1
fix_modify e1 demflag 1
timestep 1e-3
run 3000 pre no post no
Step CPU Atoms c_myNtypes[1] c_myNtypes[2] c_myNtypes[3] c_myNtypes[4] c_myNtypes[5] c_myNtypes[6] 
   33012            0      502            0          200          200          100            1            1 
   36012  0.064986374      502            0          200          200          100            1            1 
Loop time of 0.065008 on 4 procs for 3000 steps with 502 atoms

timestep 1200
fix_modify k1 demflag 0
fix_modify d2 demflag 0
fix_modify d1 demflag 0
fix_modify e1 demflag 0
Step CPU Atoms c_myNtypes[1] c_myNtypes[2] c_myNtypes[3] c_myNtypes[4] c_myNtypes[5] c_myNtypes[6] 
   36012            0      502            0          200          200          100            1            1 
number of iterations: 6464 
   36013    1.6301922      502            0          200          200          100            1            1 
Loop time of 1.63021 on 4 procs for 1 steps with 502 atoms

fix_modify k1 demflag 1
fix_modify d2 demflag 1
fix_modify d1 demflag 1
fix_modify e1 demflag 1
timestep 1e-3
run 3000 pre no post no
Step CPU Atoms c_myNtypes[1] c_myNtypes[2] c_myNtypes[3] c_myNtypes[4] c_myNtypes[5] c_myNtypes[6] 
   36013            0      502            0          200          200          100            1            1 
   39013   0.06172337      502            0          200          200          100            1            1 
Loop time of 0.0617458 on 4 procs for 3000 steps with 502 atoms

timestep 1200
fix_modify k1 demflag 0
fix_modify d2 demflag 0
fix_modify d1 demflag 0
fix_modify e1 demflag 0
Step CPU Atoms c_myNtypes[1] c_myNtypes[2] c_myNtypes[3] c_myNtypes[4] c_myNtypes[5] c_myNtypes[6] 
   39013            0      502            0          200          200          100            1            1 
number of iterations: 6248 
   39014    1.7528593      502            0          200          200          100            1            1 
Loop time of 1.75288 on 4 procs for 1 steps with 502 atoms

fix_modify k1 demflag 1
fix_modify d2 demflag 1
fix_modify d1 demflag 1
fix_modify e1 demflag 1
timestep 1e-3
run 3000 pre no post no
Step CPU Atoms c_myNtypes[1] c_myNtypes[2] c_myNtypes[3] c_myNtypes[4] c_myNtypes[5] c_myNtypes[6] 
   39014            0      502            0          200          200          100            1            1 
   42014  0.062910843      502            0          200          200          100            1            1 
Loop time of 0.0629353 on 4 procs for 3000 steps with 502 atoms

timestep 1200
fix_modify k1 demflag 0
fix_modify d2 demflag 0
fix_modify d1 demflag 0
fix_modify e1 demflag 0
Step CPU Atoms c_myNtypes[1] c_myNtypes[2] c_myNtypes[3] c_myNtypes[4] c_myNtypes[5] c_myNtypes[6] 
   42014            0      502            0          200          200          100            1            1 
number of iterations: 6049 
   42015     1.477101      502            0          200          200          100            1            1 
Loop time of 1.47714 on 4 procs for 1 steps with 502 atoms

fix_modify k1 demflag 1
fix_modify d2 demflag 1
fix_modify d1 demflag 1
fix_modify e1 demflag 1
timestep 1e-3
run 3000 pre no post no
Step CPU Atoms c_myNtypes[1] c_myNtypes[2] c_myNtypes[3] c_myNtypes[4] c_myNtypes[5] c_myNtypes[6] 
   42015            0      502            0          200          200          100            1            1 
   45015  0.069694998      502            0          200          200          100            1            1 
Loop time of 0.0697633 on 4 procs for 3000 steps with 502 atoms

timestep 1200
fix_modify k1 demflag 0
fix_modify d2 demflag 0
fix_modify d1 demflag 0
fix_modify e1 demflag 0
Step CPU Atoms c_myNtypes[1] c_myNtypes[2] c_myNtypes[3] c_myNtypes[4] c_myNtypes[5] c_myNtypes[6] 
   45015            0      502            0          200          200          100            1            1 
number of iterations: 5867 
   45016    1.4285117      502            0          200          200          100            1            1 
Loop time of 1.42854 on 4 procs for 1 steps with 502 atoms

fix_modify k1 demflag 1
fix_modify d2 demflag 1
fix_modify d1 demflag 1
fix_modify e1 demflag 1
timestep 1e-3
run 3000 pre no post no
Step CPU Atoms c_myNtypes[1] c_myNtypes[2] c_myNtypes[3] c_myNtypes[4] c_myNtypes[5] c_myNtypes[6] 
   45016            0      502            0          200          200          100            1            1 
   48016     0.065419      502            0          200          200          100            1            1 
Loop time of 0.0654424 on 4 procs for 3000 steps with 502 atoms

timestep 1200
fix_modify k1 demflag 0
fix_modify d2 demflag 0
fix_modify d1 demflag 0
fix_modify e1 demflag 0
Step CPU Atoms c_myNtypes[1] c_myNtypes[2] c_myNtypes[3] c_myNtypes[4] c_myNtypes[5] c_myNtypes[6] 
   48016            0      502            0          200          200          100            1            1 
number of iterations: 5702 
   48017    1.5025803      502            0          200          200          100            1            1 
Loop time of 1.5026 on 4 procs for 1 steps with 502 atoms

fix_modify k1 demflag 1
fix_modify d2 demflag 1
fix_modify d1 demflag 1
fix_modify e1 demflag 1
timestep 1e-3
run 3000 pre no post no
Step CPU Atoms c_myNtypes[1] c_myNtypes[2] c_myNtypes[3] c_myNtypes[4] c_myNtypes[5] c_myNtypes[6] 
   48017            0      502            0          200          200          100            1            1 
   51017  0.064416507      502            0          200          200          100            1            1 
Loop time of 0.0644414 on 4 procs for 3000 steps with 502 atoms

timestep 1200
fix_modify k1 demflag 0
fix_modify d2 demflag 0
fix_modify d1 demflag 0
fix_modify e1 demflag 0
Step CPU Atoms c_myNtypes[1] c_myNtypes[2] c_myNtypes[3] c_myNtypes[4] c_myNtypes[5] c_myNtypes[6] 
   51017            0      502            0          200          200          100            1            1 
number of iterations: 5555 
   51018    1.2971291      502            0          200          200          100            1            1 
Loop time of 1.29715 on 4 procs for 1 steps with 502 atoms

fix_modify k1 demflag 1
fix_modify d2 demflag 1
fix_modify d1 demflag 1
fix_modify e1 demflag 1
timestep 1e-3
run 3000 pre no post no
Step CPU Atoms c_myNtypes[1] c_myNtypes[2] c_myNtypes[3] c_myNtypes[4] c_myNtypes[5] c_myNtypes[6] 
   51018            0      502            0          200          200          100            1            1 
   54018  0.062601197      502            0          200          200          100            1            1 
Loop time of 0.0626229 on 4 procs for 3000 steps with 502 atoms

timestep 1200
fix_modify k1 demflag 0
fix_modify d2 demflag 0
fix_modify d1 demflag 0
fix_modify e1 demflag 0
Step CPU Atoms c_myNtypes[1] c_myNtypes[2] c_myNtypes[3] c_myNtypes[4] c_myNtypes[5] c_myNtypes[6] 
   54018            0      502            0          200          200          100            1            1 
number of iterations: 5423 
   54019    1.3410329      502            0          200          200          100            1            1 
Loop time of 1.34106 on 4 procs for 1 steps with 502 atoms

fix_modify k1 demflag 1
fix_modify d2 demflag 1
fix_modify d1 demflag 1
fix_modify e1 demflag 1
timestep 1e-3
run 3000 pre no post no
Step CPU Atoms c_myNtypes[1] c_myNtypes[2] c_myNtypes[3] c_myNtypes[4] c_myNtypes[5] c_myNtypes[6] 
   54019            0      502            0          200          200          100            1            1 
   57019  0.069856552      502            0          200          200          100            1            1 
Loop time of 0.0698807 on 4 procs for 3000 steps with 502 atoms

timestep 1200
fix_modify k1 demflag 0
fix_modify d2 demflag 0
fix_modify d1 demflag 0
fix_modify e1 demflag 0
Step CPU Atoms c_myNtypes[1] c_myNtypes[2] c_myNtypes[3] c_myNtypes[4] c_myNtypes[5] c_myNtypes[6] 
   57019            0      502            0          200          200          100            1            1 
number of iterations: 5308 
   57020    1.2669876      502            0          200          200          100            1            1 
Loop time of 1.26701 on 4 procs for 1 steps with 502 atoms

fix_modify k1 demflag 1
fix_modify d2 demflag 1
fix_modify d1 demflag 1
fix_modify e1 demflag 1
timestep 1e-3
run 3000 pre no post no
Step CPU Atoms c_myNtypes[1] c_myNtypes[2] c_myNtypes[3] c_myNtypes[4] c_myNtypes[5] c_myNtypes[6] 
   57020            0      502            0          200          200          100            1            1 
   60020  0.071259683      502            0          200          200          100            1            1 
Loop time of 0.071285 on 4 procs for 3000 steps with 502 atoms

timestep 1200
fix_modify k1 demflag 0
fix_modify d2 demflag 0
fix_modify d1 demflag 0
fix_modify e1 demflag 0
Step CPU Atoms c_myNtypes[1] c_myNtypes[2] c_myNtypes[3] c_myNtypes[4] c_myNtypes[5] c_myNtypes[6] 
   60020            0      502            0          200          200          100            1            1 
number of iterations: 5208 
   60021    1.3032162      502            0          200          200          100            1            1 
Loop time of 1.30324 on 4 procs for 1 steps with 502 atoms

fix_modify k1 demflag 1
fix_modify d2 demflag 1
fix_modify d1 demflag 1
fix_modify e1 demflag 1
timestep 1e-3
run 3000 pre no post no
Step CPU Atoms c_myNtypes[1] c_myNtypes[2] c_myNtypes[3] c_myNtypes[4] c_myNtypes[5] c_myNtypes[6] 
   60021            0      502            0          200          200          100            1            1 
   63021  0.068397711      502            0          200          200          100            1            1 
Loop time of 0.0684251 on 4 procs for 3000 steps with 502 atoms

timestep 1200
fix_modify k1 demflag 0
fix_modify d2 demflag 0
fix_modify d1 demflag 0
fix_modify e1 demflag 0
Step CPU Atoms c_myNtypes[1] c_myNtypes[2] c_myNtypes[3] c_myNtypes[4] c_myNtypes[5] c_myNtypes[6] 
   63021            0      502            0          200          200          100            1            1 
number of iterations: 5122 
   63022    1.2533449      502            0          200          200          100            1            1 
Loop time of 1.25337 on 4 procs for 1 steps with 502 atoms

fix_modify k1 demflag 1
fix_modify d2 demflag 1
fix_modify d1 demflag 1
fix_modify e1 demflag 1
timestep 1e-3
run 3000 pre no post no
Step CPU Atoms c_myNtypes[1] c_myNtypes[2] c_myNtypes[3] c_myNtypes[4] c_myNtypes[5] c_myNtypes[6] 
   63022            0      502            0          200          200          100            1            1 
   66022  0.061058061      502            0          200          200          100            1            1 
Loop time of 0.0610818 on 4 procs for 3000 steps with 502 atoms

timestep 1200
fix_modify k1 demflag 0
fix_modify d2 demflag 0
fix_modify d1 demflag 0
fix_modify e1 demflag 0
Step CPU Atoms c_myNtypes[1] c_myNtypes[2] c_myNtypes[3] c_myNtypes[4] c_myNtypes[5] c_myNtypes[6] 
   66022            0      502            0          200          200          100            1            1 
number of iterations: 5049 
   66023    1.1556267      502            0          200          200          100            1            1 
Loop time of 1.15565 on 4 procs for 1 steps with 502 atoms

fix_modify k1 demflag 1
fix_modify d2 demflag 1
fix_modify d1 demflag 1
fix_modify e1 demflag 1
timestep 1e-3
run 3000 pre no post no
Step CPU Atoms c_myNtypes[1] c_myNtypes[2] c_myNtypes[3] c_myNtypes[4] c_myNtypes[5] c_myNtypes[6] 
   66023            0      502            0          200          200          100            1            1 
   69023  0.062888432      502            0          200          200          100            1            1 
Loop time of 0.0629122 on 4 procs for 3000 steps with 502 atoms

timestep 1200
fix_modify k1 demflag 0
fix_modify d2 demflag 0
fix_modify d1 demflag 0
fix_modify e1 demflag 0
Step CPU Atoms c_myNtypes[1] c_myNtypes[2] c_myNtypes[3] c_myNtypes[4] c_myNtypes[5] c_myNtypes[6] 
   69023            0      502            0          200          200          100            1            1 
number of iterations: 4988 
   69024    1.1915296      502            0          200          200          100            1            1 
Loop time of 1.19155 on 4 procs for 1 steps with 502 atoms

fix_modify k1 demflag 1
fix_modify d2 demflag 1
fix_modify d1 demflag 1
fix_modify e1 demflag 1
timestep 1e-3
run 3000 pre no post no
Step CPU Atoms c_myNtypes[1] c_myNtypes[2] c_myNtypes[3] c_myNtypes[4] c_myNtypes[5] c_myNtypes[6] 
   69024            0      502            0          200          200          100            1            1 
   72024  0.066869882      502            0          200          200          100            1            1 
Loop time of 0.0668958 on 4 procs for 3000 steps with 502 atoms

timestep 1200
fix_modify k1 demflag 0
fix_modify d2 demflag 0
fix_modify d1 demflag 0
fix_modify e1 demflag 0
Step CPU Atoms c_myNtypes[1] c_myNtypes[2] c_myNtypes[3] c_myNtypes[4] c_myNtypes[5] c_myNtypes[6] 
   72024            0      502            0          200          200          100            1            1 
number of iterations: 4938 
   72025    1.3055116      506            0          204          200          100            1            1 
Loop time of 1.30553 on 4 procs for 1 steps with 506 atoms

fix_modify k1 demflag 1
fix_modify d2 demflag 1
fix_modify d1 demflag 1
fix_modify e1 demflag 1
timestep 1e-3
run 3000 pre no post no
Step CPU Atoms c_myNtypes[1] c_myNtypes[2] c_myNtypes[3] c_myNtypes[4] c_myNtypes[5] c_myNtypes[6] 
   72025            0      506            0          204          200          100            1            1 
   75025  0.067063749      506            0          204          200          100            1            1 
Loop time of 0.0670887 on 4 procs for 3000 steps with 506 atoms

timestep 1200
fix_modify k1 demflag 0
fix_modify d2 demflag 0
fix_modify d1 demflag 0
fix_modify e1 demflag 0
Step CPU Atoms c_myNtypes[1] c_myNtypes[2] c_myNtypes[3] c_myNtypes[4] c_myNtypes[5] c_myNtypes[6] 
   75025            0      506            0          204          200          100            1            1 
number of iterations: 4896 
   75026    1.1177597      538            0          236          200          100            1            1 
Loop time of 1.11778 on 4 procs for 1 steps with 538 atoms

fix_modify k1 demflag 1
fix_modify d2 demflag 1
fix_modify d1 demflag 1
fix_modify e1 demflag 1
timestep 1e-3
run 3000 pre no post no
Step CPU Atoms c_myNtypes[1] c_myNtypes[2] c_myNtypes[3] c_myNtypes[4] c_myNtypes[5] c_myNtypes[6] 
   75026            0      538            0          236          200          100            1            1 
   78026  0.067319939      538            0          236          200          100            1            1 
Loop time of 0.0673433 on 4 procs for 3000 steps with 538 atoms

timestep 1200
fix_modify k1 demflag 0
fix_modify d2 demflag 0
fix_modify d1 demflag 0
fix_modify e1 demflag 0
Step CPU Atoms c_myNtypes[1] c_myNtypes[2] c_myNtypes[3] c_myNtypes[4] c_myNtypes[5] c_myNtypes[6] 
   78026            0      538            0          236          200          100            1            1 
number of iterations: 4863 
   78027    1.1342227      555            0          253          200          100            1            1 
Loop time of 1.13424 on 4 procs for 1 steps with 555 atoms

fix_modify k1 demflag 1
fix_modify d2 demflag 1
fix_modify d1 demflag 1
fix_modify e1 demflag 1
timestep 1e-3
run 3000 pre no post no
Step CPU Atoms c_myNtypes[1] c_myNtypes[2] c_myNtypes[3] c_myNtypes[4] c_myNtypes[5] c_myNtypes[6] 
   78027            0      555            0          253          200          100            1            1 
   81027  0.068629008      555            0          253          200          100            1            1 
Loop time of 0.0686653 on 4 procs for 3000 steps with 555 atoms

timestep 1200
fix_modify k1 demflag 0
fix_modify d2 demflag 0
fix_modify d1 demflag 0
fix_modify e1 demflag 0
Step CPU Atoms c_myNtypes[1] c_myNtypes[2] c_myNtypes[3] c_myNtypes[4] c_myNtypes[5] c_myNtypes[6] 
   81027            0      555            0          253          200          100            1            1 
number of iterations: 4835 
   81028    1.1995869      566            0          264          200          100            1            1 
Loop time of 1.19961 on 4 procs for 1 steps with 566 atoms

fix_modify k1 demflag 1
fix_modify d2 demflag 1
fix_modify d1 demflag 1
fix_modify e1 demflag 1
timestep 1e-3
run 3000 pre no post no
Step CPU Atoms c_myNtypes[1] c_myNtypes[2] c_myNtypes[3] c_myNtypes[4] c_myNtypes[5] c_myNtypes[6] 
   81028            0      566            0          264          200          100            1            1 
   84028  0.076779412      566            0          264          200          100            1            1 
Loop time of 0.0768067 on 4 procs for 3000 steps with 566 atoms

timestep 1200
fix_modify k1 demflag 0
fix_modify d2 demflag 0
fix_modify d1 demflag 0
fix_modify e1 demflag 0
Step CPU Atoms c_myNtypes[1] c_myNtypes[2] c_myNtypes[3] c_myNtypes[4] c_myNtypes[5] c_myNtypes[6] 
   84028            0      566            0          264          200          100            1            1 
number of iterations: 4813 
   84029    1.1176183      586            0          284          200          100            1            1 
Loop time of 1.11764 on 4 procs for 1 steps with 586 atoms

fix_modify k1 demflag 1
fix_modify d2 demflag 1
fix_modify d1 demflag 1
fix_modify e1 demflag 1
timestep 1e-3
run 3000 pre no post no
Step CPU Atoms c_myNtypes[1] c_myNtypes[2] c_myNtypes[3] c_myNtypes[4] c_myNtypes[5] c_myNtypes[6] 
   84029            0      586            0          284          200          100            1            1 
   87029  0.077564326      586            0          284          200          100            1            1 
Loop time of 0.0775875 on 4 procs for 3000 steps with 586 atoms

timestep 1200
fix_modify k1 demflag 0
fix_modify d2 demflag 0
fix_modify d1 demflag 0
fix_modify e1 demflag 0
Step CPU Atoms c_myNtypes[1] c_myNtypes[2] c_myNtypes[3] c_myNtypes[4] c_myNtypes[5] c_myNtypes[6] 
   87029            0      586            0          284          200          100            1            1 
number of iterations: 4796 
   87030    1.5812942      594            0          292          200          100            1            1 
Loop time of 1.58132 on 4 procs for 1 steps with 594 atoms

fix_modify k1 demflag 1
fix_modify d2 demflag 1
fix_modify d1 demflag 1
fix_modify e1 demflag 1
timestep 1e-3
run 3000 pre no post no
Step CPU Atoms c_myNtypes[1] c_myNtypes[2] c_myNtypes[3] c_myNtypes[4] c_myNtypes[5] c_myNtypes[6] 
   87030            0      594            0          292          200          100            1            1 
   90030  0.096851171      594            0          292          200          100            1            1 
Loop time of 0.0968759 on 4 procs for 3000 steps with 594 atoms

timestep 1200
fix_modify k1 demflag 0
fix_modify d2 demflag 0
fix_modify d1 demflag 0
fix_modify e1 demflag 0
Step CPU Atoms c_myNtypes[1] c_myNtypes[2] c_myNtypes[3] c_myNtypes[4] c_myNtypes[5] c_myNtypes[6] 
   90030            0      594            0          292          200          100            1            1 
number of iterations: 4789 
   90031    1.1756429      606            0          304          200          100            1            1 
Loop time of 1.17566 on 4 procs for 1 steps with 606 atoms

fix_modify k1 demflag 1
fix_modify d2 demflag 1
fix_modify d1 demflag 1
fix_modify e1 demflag 1
timestep 1e-3
run 3000 pre no post no
Step CPU Atoms c_myNtypes[1] c_myNtypes[2] c_myNtypes[3] c_myNtypes[4] c_myNtypes[5] c_myNtypes[6] 
   90031            0      606            0          304          200          100            1            1 
   93031  0.073686519      606            0          304          200          100            1            1 
Loop time of 0.0737116 on 4 procs for 3000 steps with 606 atoms

timestep 1200
fix_modify k1 demflag 0
fix_modify d2 demflag 0
fix_modify d1 demflag 0
fix_modify e1 demflag 0
Step CPU Atoms c_myNtypes[1] c_myNtypes[2] c_myNtypes[3] c_myNtypes[4] c_myNtypes[5] c_myNtypes[6] 
   93031            0      606            0          304          200          100            1            1 
number of iterations: 4787 
   93032    1.2456447      614            0          312          200          100            1            1 
Loop time of 1.24567 on 4 procs for 1 steps with 614 atoms

fix_modify k1 demflag 1
fix_modify d2 demflag 1
fix_modify d1 demflag 1
fix_modify e1 demflag 1
timestep 1e-3
run 3000 pre no post no
Step CPU Atoms c_myNtypes[1] c_myNtypes[2] c_myNtypes[3] c_myNtypes[4] c_myNtypes[5] c_myNtypes[6] 
   93032            0      614            0          312          200          100            1            1 
   96032  0.076380473      614            0          312          200          100            1            1 
Loop time of 0.0764035 on 4 procs for 3000 steps with 614 atoms

timestep 1200
fix_modify k1 demflag 0
fix_modify d2 demflag 0
fix_modify d1 demflag 0
fix_modify e1 demflag 0
Step CPU Atoms c_myNtypes[1] c_myNtypes[2] c_myNtypes[3] c_myNtypes[4] c_myNtypes[5] c_myNtypes[6] 
   96032            0      614            0          312          200          100            1            1 
number of iterations: 4786 
   96033    1.2755237      627            0          321          204          100            1            1 
Loop time of 1.27555 on 4 procs for 1 steps with 627 atoms

fix_modify k1 demflag 1
fix_modify d2 demflag 1
fix_modify d1 demflag 1
fix_modify e1 demflag 1
timestep 1e-3
run 3000 pre no post no
Step CPU Atoms c_myNtypes[1] c_myNtypes[2] c_myNtypes[3] c_myNtypes[4] c_myNtypes[5] c_myNtypes[6] 
   96033            0      627            0          321          204          100            1            1 
   99033  0.075514412      627            0          321          204          100            1            1 
Loop time of 0.0755396 on 4 procs for 3000 steps with 627 atoms

timestep 1200
fix_modify k1 demflag 0
fix_modify d2 demflag 0
fix_modify d1 demflag 0
fix_modify e1 demflag 0
Step CPU Atoms c_myNtypes[1] c_myNtypes[2] c_myNtypes[3] c_myNtypes[4] c_myNtypes[5] c_myNtypes[6] 
   99033            0      627            0          321          204          100            1            1 
number of iterations: 4786 
   99034    1.2053539      647            0          336          209          100            1            1 
Loop time of 1.20537 on 4 procs for 1 steps with 647 atoms

fix_modify k1 demflag 1
fix_modify d2 demflag 1
fix_modify d1 demflag 1
fix_modify e1 demflag 1
timestep 1e-3
run 3000 pre no post no
Step CPU Atoms c_myNtypes[1] c_myNtypes[2] c_myNtypes[3] c_myNtypes[4] c_myNtypes[5] c_myNtypes[6] 
   99034            0      647            0          336          209          100            1            1 
  102034  0.076529936      647            0          336          209          100            1            1 
Loop time of 0.0765534 on 4 procs for 3000 steps with 647 atoms

timestep 1200
fix_modify k1 demflag 0
fix_modify d2 demflag 0
fix_modify d1 demflag 0
fix_modify e1 demflag 0
Step CPU Atoms c_myNtypes[1] c_myNtypes[2] c_myNtypes[3] c_myNtypes[4] c_myNtypes[5] c_myNtypes[6] 
  102034            0      647            0          336          209          100            1            1 
number of iterations: 4785 
  102035    1.0900761      670            0          351          217          100            1            1 
Loop time of 1.0901 on 4 procs for 1 steps with 670 atoms

fix_modify k1 demflag 1
fix_modify d2 demflag 1
fix_modify d1 demflag 1
fix_modify e1 demflag 1
timestep 1e-3
run 3000 pre no post no
Step CPU Atoms c_myNtypes[1] c_myNtypes[2] c_myNtypes[3] c_myNtypes[4] c_myNtypes[5] c_myNtypes[6] 
  102035            0      670            0          351          217          100            1            1 
  105035  0.082590884      670            0          351          217          100            1            1 
Loop time of 0.082614 on 4 procs for 3000 steps with 670 atoms

timestep 1200
fix_modify k1 demflag 0
fix_modify d2 demflag 0
fix_modify d1 demflag 0
fix_modify e1 demflag 0
Step CPU Atoms c_myNtypes[1] c_myNtypes[2] c_myNtypes[3] c_myNtypes[4] c_myNtypes[5] c_myNtypes[6] 
  105035            0      670            0          351          217          100            1            1 
number of iterations: 4785 
  105036    1.0904547      694            0          354          238          100            1            1 
Loop time of 1.09047 on 4 procs for 1 steps with 694 atoms

fix_modify k1 demflag 1
fix_modify d2 demflag 1
fix_modify d1 demflag 1
fix_modify e1 demflag 1
timestep 1e-3
run 3000 pre no post no
Step CPU Atoms c_myNtypes[1] c_myNtypes[2] c_myNtypes[3] c_myNtypes[4] c_myNtypes[5] c_myNtypes[6] 
  105036            0      694            0          354          238          100            1            1 
  108036  0.085711666      694            0          354          238          100            1            1 
Loop time of 0.0857342 on 4 procs for 3000 steps with 694 atoms

timestep 1200
fix_modify k1 demflag 0
fix_modify d2 demflag 0
fix_modify d1 demflag 0
fix_modify e1 demflag 0
Step CPU Atoms c_myNtypes[1] c_myNtypes[2] c_myNtypes[3] c_myNtypes[4] c_myNtypes[5] c_myNtypes[6] 
  108036            0      694            0          354          238          100            1            1 
number of iterations: 4784 
  108037    1.1038806      745            0          388          255          100            1            1 
Loop time of 1.1039 on 4 procs for 1 steps with 745 atoms

fix_modify k1 demflag 1
fix_modify d2 demflag 1
fix_modify d1 demflag 1
fix_modify e1 demflag 1
timestep 1e-3
run 3000 pre no post no
Step CPU Atoms c_myNtypes[1] c_myNtypes[2] c_myNtypes[3] c_myNtypes[4] c_myNtypes[5] c_myNtypes[6] 
  108037            0      745            0          388          255          100            1            1 
  111037  0.082172808      745            0          388          255          100            1            1 
Loop time of 0.0821956 on 4 procs for 3000 steps with 745 atoms

timestep 1200
fix_modify k1 demflag 0
fix_modify d2 demflag 0
fix_modify d1 demflag 0
fix_modify e1 demflag 0
Step CPU Atoms c_myNtypes[1] c_myNtypes[2] c_myNtypes[3] c_myNtypes[4] c_myNtypes[5] c_myNtypes[6] 
  111037            0      745            0          388          255          100            1            1 
number of iterations: 4784 
  111038    1.1000999      763            0          396          265          100            1            1 
Loop time of 1.10012 on 4 procs for 1 steps with 763 atoms

fix_modify k1 demflag 1
fix_modify d2 demflag 1
fix_modify d1 demflag 1
fix_modify e1 demflag 1
timestep 1e-3
run 3000 pre no post no
Step CPU Atoms c_myNtypes[1] c_myNtypes[2] c_myNtypes[3] c_myNtypes[4] c_myNtypes[5] c_myNtypes[6] 
  111038            0      763            0          396          265          100            1            1 
  114038  0.090365594      763            0          396          265          100            1            1 
Loop time of 0.0903889 on 4 procs for 3000 steps with 763 atoms

timestep 1200
fix_modify k1 demflag 0
fix_modify d2 demflag 0
fix_modify d1 demflag 0
fix_modify e1 demflag 0
Step CPU Atoms c_myNtypes[1] c_myNtypes[2] c_myNtypes[3] c_myNtypes[4] c_myNtypes[5] c_myNtypes[6] 
  114038            0      763            0          396          265          100            1            1 
number of iterations: 4784 
  114039    1.0896505      784            0          400          282          100            1            1 
Loop time of 1.08967 on 4 procs for 1 steps with 784 atoms

fix_modify k1 demflag 1
fix_modify d2 demflag 1
fix_modify d1 demflag 1
fix_modify e1 demflag 1
timestep 1e-3
run 3000 pre no post no
Step CPU Atoms c_myNtypes[1] c_myNtypes[2] c_myNtypes[3] c_myNtypes[4] c_myNtypes[5] c_myNtypes[6] 
  114039            0      784            0          400          282          100            1            1 
  117039  0.089863038      784            0          400          282          100            1            1 
Loop time of 0.089886 on 4 procs for 3000 steps with 784 atoms

timestep 1200
fix_modify k1 demflag 0
fix_modify d2 demflag 0
fix_modify d1 demflag 0
fix_modify e1 demflag 0
Step CPU Atoms c_myNtypes[1] c_myNtypes[2] c_myNtypes[3] c_myNtypes[4] c_myNtypes[5] c_myNtypes[6] 
  117039            0      784            0          400          282          100            1            1 
number of iterations: 4784 
  117040    1.0902829      794            0          400          292          100            1            1 
Loop time of 1.0903 on 4 procs for 1 steps with 794 atoms

fix_modify k1 demflag 1
fix_modify d2 demflag 1
fix_modify d1 demflag 1
fix_modify e1 demflag 1
timestep 1e-3
run 3000 pre no post no
Step CPU Atoms c_myNtypes[1] c_myNtypes[2] c_myNtypes[3] c_myNtypes[4] c_myNtypes[5] c_myNtypes[6] 
  117040            0      794            0          400          292          100            1            1 
  120040  0.090474405      794            0          400          292          100            1            1 
Loop time of 0.0904975 on 4 procs for 3000 steps with 794 atoms

timestep 1200
fix_modify k1 demflag 0
fix_modify d2 demflag 0
fix_modify d1 demflag 0
fix_modify e1 demflag 0
Step CPU Atoms c_myNtypes[1] c_myNtypes[2] c_myNtypes[3] c_myNtypes[4] c_myNtypes[5] c_myNtypes[6] 
  120040            0      794            0          400          292          100            1            1 
number of iterations: 4784 
  120041    1.1951048      802            0          400          300          100            1            1 
Loop time of 1.19513 on 4 procs for 1 steps with 802 atoms

fix_modify k1 demflag 1
fix_modify d2 demflag 1
fix_modify d1 demflag 1
fix_modify e1 demflag 1
timestep 1e-3
run 3000 pre no post no
Step CPU Atoms c_myNtypes[1] c_myNtypes[2] c_myNtypes[3] c_myNtypes[4] c_myNtypes[5] c_myNtypes[6] 
  120041            0      802            0          400          300          100            1            1 
  123041  0.096404962      802            0          400          300          100            1            1 
Loop time of 0.0964293 on 4 procs for 3000 steps with 802 atoms

timestep 1200
fix_modify k1 demflag 0
fix_modify d2 demflag 0
fix_modify d1 demflag 0
fix_modify e1 demflag 0
Step CPU Atoms c_myNtypes[1] c_myNtypes[2] c_myNtypes[3] c_myNtypes[4] c_myNtypes[5] c_myNtypes[6] 
  123041            0      802            0          400          300          100            1            1 
number of iterations: 4784 
  123042    1.1835345      808            0          400          306          100            1            1 
Loop time of 1.18356 on 4 procs for 1 steps with 808 atoms

fix_modify k1 demflag 1
fix_modify d2 demflag 1
fix_modify d1 demflag 1
fix_modify e1 demflag 1
timestep 1e-3
run 3000 pre no post no
Step CPU Atoms c_myNtypes[1] c_myNtypes[2] c_myNtypes[3] c_myNtypes[4] c_myNtypes[5] c_myNtypes[6] 
  123042            0      808            0          400          306          100            1            1 
  126042  0.096884073      808            0          400          306          100            1            1 
Loop time of 0.0969058 on 4 procs for 3000 steps with 808 atoms

timestep 1200
fix_modify k1 demflag 0
fix_modify d2 demflag 0
fix_modify d1 demflag 0
fix_modify e1 demflag 0
Step CPU Atoms c_myNtypes[1] c_myNtypes[2] c_myNtypes[3] c_myNtypes[4] c_myNtypes[5] c_myNtypes[6] 
  126042            0      808            0          400          306          100            1            1 
number of iterations: 4783 
  126043    1.0952483      814            0          402          310          100            1            1 
Loop time of 1.09527 on 4 procs for 1 steps with 814 atoms

fix_modify k1 demflag 1
fix_modify d2 demflag 1
fix_modify d1 demflag 1
fix_modify e1 demflag 1
timestep 1e-3
run 3000 pre no post no
Step CPU Atoms c_myNtypes[1] c_myNtypes[2] c_myNtypes[3] c_myNtypes[4] c_myNtypes[5] c_myNtypes[6] 
  126043            0      814            0          402          310          100            1            1 
  129043  0.098630004      814            0          402          310          100            1            1 
Loop time of 0.0986521 on 4 procs for 3000 steps with 814 atoms

timestep 1200
fix_modify k1 demflag 0
fix_modify d2 demflag 0
fix_modify d1 demflag 0
fix_modify e1 demflag 0
Step CPU Atoms c_myNtypes[1] c_myNtypes[2] c_myNtypes[3] c_myNtypes[4] c_myNtypes[5] c_myNtypes[6] 
  129043            0      814            0          402          310          100            1            1 
number of iterations: 4784 
  129044    1.0995401      838            0          405          331          100            1            1 
Loop time of 1.09956 on 4 procs for 1 steps with 838 atoms

fix_modify k1 demflag 1
fix_modify d2 demflag 1
fix_modify d1 demflag 1
fix_modify e1 demflag 1
timestep 1e-3
run 3000 pre no post no
Step CPU Atoms c_myNtypes[1] c_myNtypes[2] c_myNtypes[3] c_myNtypes[4] c_myNtypes[5] c_myNtypes[6] 
  129044            0      838            0          405          331          100            1            1 
  132044   0.10034201      838            0          405          331          100            1            1 
Loop time of 0.100366 on 4 procs for 3000 steps with 838 atoms

timestep 1200
fix_modify k1 demflag 0
fix_modify d2 demflag 0
fix_modify d1 demflag 0
fix_modify e1 demflag 0
Step CPU Atoms c_myNtypes[1] c_myNtypes[2] c_myNtypes[3] c_myNtypes[4] c_myNtypes[5] c_myNtypes[6] 
  132044            0      838            0          405          331          100            1            1 
number of iterations: 4783 
  132045     1.110702      857            0          414          341          100            1            1 
Loop time of 1.11072 on 4 procs for 1 steps with 857 atoms

fix_modify k1 demflag 1
fix_modify d2 demflag 1
fix_modify d1 demflag 1
fix_modify e1 demflag 1
timestep 1e-3
run 3000 pre no post no
Step CPU Atoms c_myNtypes[1] c_myNtypes[2] c_myNtypes[3] c_myNtypes[4] c_myNtypes[5] c_myNtypes[6] 
  132045            0      857            0          414          341          100            1            1 
  135045   0.10142305      857            0          414          341          100            1            1 
Loop time of 0.101448 on 4 procs for 3000 steps with 857 atoms

timestep 1200
fix_modify k1 demflag 0
fix_modify d2 demflag 0
fix_modify d1 demflag 0
fix_modify e1 demflag 0
Step CPU Atoms c_myNtypes[1] c_myNtypes[2] c_myNtypes[3] c_myNtypes[4] c_myNtypes[5] c_myNtypes[6] 
  135045            0      857            0          414          341          100            1            1 
number of iterations: 4783 
  135046    1.1717128      880            0          427          351          100            1            1 
Loop time of 1.17173 on 4 procs for 1 steps with 880 atoms

fix_modify k1 demflag 1
fix_modify d2 demflag 1
fix_modify d1 demflag 1
fix_modify e1 demflag 1
timestep 1e-3
run 3000 pre no post no
Step CPU Atoms c_myNtypes[1] c_myNtypes[2] c_myNtypes[3] c_myNtypes[4] c_myNtypes[5] c_myNtypes[6] 
  135046            0      880            0          427          351          100            1            1 
  138046   0.10270175      880            0          427          351          100            1            1 
Loop time of 0.102726 on 4 procs for 3000 steps with 880 atoms

timestep 1200
fix_modify k1 demflag 0
fix_modify d2 demflag 0
fix_modify d1 demflag 0
fix_modify e1 demflag 0
Step CPU Atoms c_myNtypes[1] c_myNtypes[2] c_myNtypes[3] c_myNtypes[4] c_myNtypes[5] c_myNtypes[6] 
  138046            0      880            0          427          351          100            1            1 
number of iterations: 4783 
  138047    1.1194616      895            0          431          362          100            1            1 
Loop time of 1.11949 on 4 procs for 1 steps with 895 atoms

fix_modify k1 demflag 1
fix_modify d2 demflag 1
fix_modify d1 demflag 1
fix_modify e1 demflag 1
timestep 1e-3
run 3000 pre no post no
Step CPU Atoms c_myNtypes[1] c_myNtypes[2] c_myNtypes[3] c_myNtypes[4] c_myNtypes[5] c_myNtypes[6] 
  138047            0      895            0          431          362          100            1            1 
  141047    0.1341676      895            0          431          362          100            1            1 
Loop time of 0.134202 on 4 procs for 3000 steps with 895 atoms

timestep 1200
fix_modify k1 demflag 0
fix_modify d2 demflag 0
fix_modify d1 demflag 0
fix_modify e1 demflag 0
Step CPU Atoms c_myNtypes[1] c_myNtypes[2] c_myNtypes[3] c_myNtypes[4] c_myNtypes[5] c_myNtypes[6] 
  141047            0      895            0          431          362          100            1            1 
number of iterations: 4783 
  141048    1.5284513      928            0          447          379          100            1            1 
Loop time of 1.52847 on 4 procs for 1 steps with 928 atoms

fix_modify k1 demflag 1
fix_modify d2 demflag 1
fix_modify d1 demflag 1
fix_modify e1 demflag 1
timestep 1e-3
run 3000 pre no post no
Step CPU Atoms c_myNtypes[1] c_myNtypes[2] c_myNtypes[3] c_myNtypes[4] c_myNtypes[5] c_myNtypes[6] 
  141048            0      928            0          447          379          100            1            1 
  144048    0.1119766      928            0          447          379          100            1            1 
Loop time of 0.111999 on 4 procs for 3000 steps with 928 atoms

timestep 1200
fix_modify k1 demflag 0
fix_modify d2 demflag 0
fix_modify d1 demflag 0
fix_modify e1 demflag 0
Step CPU Atoms c_myNtypes[1] c_myNtypes[2] c_myNtypes[3] c_myNtypes[4] c_myNtypes[5] c_myNtypes[6] 
  144048            0      928            0          447          379          100            1            1 
number of iterations: 4783 
  144049    1.2145262      950            0          461          387          100            1            1 
Loop time of 1.21455 on 4 procs for 1 steps with 950 atoms

fix_modify k1 demflag 1
fix_modify d2 demflag 1
fix_modify d1 demflag 1
fix_modify e1 demflag 1
timestep 1e-3
run 3000 pre no post no
Step CPU Atoms c_myNtypes[1] c_myNtypes[2] c_myNtypes[3] c_myNtypes[4] c_myNtypes[5] c_myNtypes[6] 
  144049            0      950            0          461          387          100            1            1 
  147049   0.10716291      950            0          461          387          100            1            1 
Loop time of 0.107188 on 4 procs for 3000 steps with 950 atoms

timestep 1200
fix_modify k1 demflag 0
fix_modify d2 demflag 0
fix_modify d1 demflag 0
fix_modify e1 demflag 0
Step CPU Atoms c_myNtypes[1] c_myNtypes[2] c_myNtypes[3] c_myNtypes[4] c_myNtypes[5] c_myNtypes[6] 
  147049            0      950            0          461          387          100            1            1 
number of iterations: 4783 
  147050    1.4702821      979            0          485          392          100            1            1 
Loop time of 1.47031 on 4 procs for 1 steps with 979 atoms

fix_modify k1 demflag 1
fix_modify d2 demflag 1
fix_modify d1 demflag 1
fix_modify e1 demflag 1
timestep 1e-3
run 3000 pre no post no
Step CPU Atoms c_myNtypes[1] c_myNtypes[2] c_myNtypes[3] c_myNtypes[4] c_myNtypes[5] c_myNtypes[6] 
  147050            0      979            0          485          392          100            1            1 
  150050   0.13020203      979            0          485          392          100            1            1 
Loop time of 0.130233 on 4 procs for 3000 steps with 979 atoms

timestep 1200
fix_modify k1 demflag 0
fix_modify d2 demflag 0
fix_modify d1 demflag 0
fix_modify e1 demflag 0
Step CPU Atoms c_myNtypes[1] c_myNtypes[2] c_myNtypes[3] c_myNtypes[4] c_myNtypes[5] c_myNtypes[6] 
  150050            0      979            0          485          392          100            1            1 
number of iterations: 4783 
  150051    1.3137214     1003            0          505          396          100            1            1 
Loop time of 1.31374 on 4 procs for 1 steps with 1003 atoms

fix_modify k1 demflag 1
fix_modify d2 demflag 1
fix_modify d1 demflag 1
fix_modify e1 demflag 1
timestep 1e-3
run 3000 pre no post no
Step CPU Atoms c_myNtypes[1] c_myNtypes[2] c_myNtypes[3] c_myNtypes[4] c_myNtypes[5] c_myNtypes[6] 
  150051            0     1003            0          505          396          100            1            1 
  153051   0.11249103     1003            0          505          396          100            1            1 
Loop time of 0.112519 on 4 procs for 3000 steps with 1003 atoms

timestep 1200
fix_modify k1 demflag 0
fix_modify d2 demflag 0
fix_modify d1 demflag 0
fix_modify e1 demflag 0
Step CPU Atoms c_myNtypes[1] c_myNtypes[2] c_myNtypes[3] c_myNtypes[4] c_myNtypes[5] c_myNtypes[6] 
  153051            0     1003            0          505          396          100            1            1 
number of iterations: 4783 
  153052     1.234787     1025            0          523          400          100            1            1 
Loop time of 1.23481 on 4 procs for 1 steps with 1025 atoms

fix_modify k1 demflag 1
fix_modify d2 demflag 1
fix_modify d1 demflag 1
fix_modify e1 demflag 1
timestep 1e-3
run 3000 pre no post no
Step CPU Atoms c_myNtypes[1] c_myNtypes[2] c_myNtypes[3] c_myNtypes[4] c_myNtypes[5] c_myNtypes[6] 
  153052            0     1025            0          523          400          100            1            1 
  156052    0.1204973     1025            0          523          400          100            1            1 
Loop time of 0.120523 on 4 procs for 3000 steps with 1025 atoms

timestep 1200
fix_modify k1 demflag 0
fix_modify d2 demflag 0
fix_modify d1 demflag 0
fix_modify e1 demflag 0
Step CPU Atoms c_myNtypes[1] c_myNtypes[2] c_myNtypes[3] c_myNtypes[4] c_myNtypes[5] c_myNtypes[6] 
  156052            0     1025            0          523          400          100            1            1 
number of iterations: 4783 
  156053    1.7687409     1043            0          541          400          100            1            1 
Loop time of 1.76877 on 4 procs for 1 steps with 1043 atoms

fix_modify k1 demflag 1
fix_modify d2 demflag 1
fix_modify d1 demflag 1
fix_modify e1 demflag 1
timestep 1e-3
run 3000 pre no post no
Step CPU Atoms c_myNtypes[1] c_myNtypes[2] c_myNtypes[3] c_myNtypes[4] c_myNtypes[5] c_myNtypes[6] 
  156053            0     1043            0          541          400          100            1            1 
  159053   0.18522255     1043            0          541          400          100            1            1 
Loop time of 0.185251 on 4 procs for 3000 steps with 1043 atoms

timestep 1200
fix_modify k1 demflag 0
fix_modify d2 demflag 0
fix_modify d1 demflag 0
fix_modify e1 demflag 0
Step CPU Atoms c_myNtypes[1] c_myNtypes[2] c_myNtypes[3] c_myNtypes[4] c_myNtypes[5] c_myNtypes[6] 
  159053            0     1043            0          541          400          100            1            1 
number of iterations: 4783 
  159054    1.7158324     1062            0          560          400          100            1            1 
Loop time of 1.71586 on 4 procs for 1 steps with 1062 atoms

fix_modify k1 demflag 1
fix_modify d2 demflag 1
fix_modify d1 demflag 1
fix_modify e1 demflag 1
timestep 1e-3
run 3000 pre no post no
Step CPU Atoms c_myNtypes[1] c_myNtypes[2] c_myNtypes[3] c_myNtypes[4] c_myNtypes[5] c_myNtypes[6] 
  159054            0     1062            0          560          400          100            1            1 
  162054   0.13203072     1062            0          560          400          100            1            1 
Loop time of 0.132054 on 4 procs for 3000 steps with 1062 atoms

timestep 1200
fix_modify k1 demflag 0
fix_modify d2 demflag 0
fix_modify d1 demflag 0
fix_modify e1 demflag 0
Step CPU Atoms c_myNtypes[1] c_myNtypes[2] c_myNtypes[3] c_myNtypes[4] c_myNtypes[5] c_myNtypes[6] 
  162054            0     1062            0          560          400          100            1            1 
number of iterations: 4783 
  162055    1.4226159     1093            0          591          400          100            1            1 
Loop time of 1.42264 on 4 procs for 1 steps with 1093 atoms

fix_modify k1 demflag 1
fix_modify d2 demflag 1
fix_modify d1 demflag 1
fix_modify e1 demflag 1
timestep 1e-3
run 3000 pre no post no
Step CPU Atoms c_myNtypes[1] c_myNtypes[2] c_myNtypes[3] c_myNtypes[4] c_myNtypes[5] c_myNtypes[6] 
  162055            0     1093            0          591          400          100            1            1 
  165055   0.17917634     1093            0          591          400          100            1            1 
Loop time of 0.179246 on 4 procs for 3000 steps with 1093 atoms

timestep 1200
fix_modify k1 demflag 0
fix_modify d2 demflag 0
fix_modify d1 demflag 0
fix_modify e1 demflag 0
Step CPU Atoms c_myNtypes[1] c_myNtypes[2] c_myNtypes[3] c_myNtypes[4] c_myNtypes[5] c_myNtypes[6] 
  165055            0     1093            0          591          400          100            1            1 
number of iterations: 4783 
  165056    1.6694896     1125            0          623          400          100            1            1 
Loop time of 1.66952 on 4 procs for 1 steps with 1125 atoms

fix_modify k1 demflag 1
fix_modify d2 demflag 1
fix_modify d1 demflag 1
fix_modify e1 demflag 1
timestep 1e-3
run 3000 pre no post no
Step CPU Atoms c_myNtypes[1] c_myNtypes[2] c_myNtypes[3] c_myNtypes[4] c_myNtypes[5] c_myNtypes[6] 
  165056            0     1125            0          623          400          100            1            1 
  168056   0.14594164     1125            0          623          400          100            1            1 
Loop time of 0.14597 on 4 procs for 3000 steps with 1125 atoms

timestep 1200
fix_modify k1 demflag 0
fix_modify d2 demflag 0
fix_modify d1 demflag 0
fix_modify e1 demflag 0
Step CPU Atoms c_myNtypes[1] c_myNtypes[2] c_myNtypes[3] c_myNtypes[4] c_myNtypes[5] c_myNtypes[6] 
  168056            0     1125            0          623          400          100            1            1 
number of iterations: 4783 
  168057    1.1792831     1159            0          657          400          100            1            1 
Loop time of 1.1793 on 4 procs for 1 steps with 1159 atoms

fix_modify k1 demflag 1
fix_modify d2 demflag 1
fix_modify d1 demflag 1
fix_modify e1 demflag 1
timestep 1e-3
run 3000 pre no post no
Step CPU Atoms c_myNtypes[1] c_myNtypes[2] c_myNtypes[3] c_myNtypes[4] c_myNtypes[5] c_myNtypes[6] 
  168057            0     1159            0          657          400          100            1            1 
  171057    0.1260569     1159            0          657          400          100            1            1 
Loop time of 0.126081 on 4 procs for 3000 steps with 1159 atoms

timestep 1200
fix_modify k1 demflag 0
fix_modify d2 demflag 0
fix_modify d1 demflag 0
fix_modify e1 demflag 0
Step CPU Atoms c_myNtypes[1] c_myNtypes[2] c_myNtypes[3] c_myNtypes[4] c_myNtypes[5] c_myNtypes[6] 
  171057            0     1159            0          657          400          100            1            1 
number of iterations: 4783 
  171058    1.1220966     1175            0          673          400          100            1            1 
Loop time of 1.12212 on 4 procs for 1 steps with 1175 atoms

fix_modify k1 demflag 1
fix_modify d2 demflag 1
fix_modify d1 demflag 1
fix_modify e1 demflag 1
timestep 1e-3
run 3000 pre no post no
Step CPU Atoms c_myNtypes[1] c_myNtypes[2] c_myNtypes[3] c_myNtypes[4] c_myNtypes[5] c_myNtypes[6] 
  171058            0     1175            0          673          400          100            1            1 
  174058   0.12539152     1175            0          673          400          100            1            1 
Loop time of 0.125414 on 4 procs for 3000 steps with 1175 atoms

timestep 1200
fix_modify k1 demflag 0
fix_modify d2 demflag 0
fix_modify d1 demflag 0
fix_modify e1 demflag 0
Step CPU Atoms c_myNtypes[1] c_myNtypes[2] c_myNtypes[3] c_myNtypes[4] c_myNtypes[5] c_myNtypes[6] 
  174058            0     1175            0          673          400          100            1            1 
number of iterations: 4783 
  174059    1.0987005     1206            0          704          400          100            1            1 
Loop time of 1.09872 on 4 procs for 1 steps with 1206 atoms

fix_modify k1 demflag 1
fix_modify d2 demflag 1
fix_modify d1 demflag 1
fix_modify e1 demflag 1
timestep 1e-3
run 3000 pre no post no
Step CPU Atoms c_myNtypes[1] c_myNtypes[2] c_myNtypes[3] c_myNtypes[4] c_myNtypes[5] c_myNtypes[6] 
  174059            0     1206            0          704          400          100            1            1 
  177059   0.13128724     1206            0          704          400          100            1            1 
Loop time of 0.13131 on 4 procs for 3000 steps with 1206 atoms

timestep 1200
fix_modify k1 demflag 0
fix_modify d2 demflag 0
fix_modify d1 demflag 0
fix_modify e1 demflag 0
Step CPU Atoms c_myNtypes[1] c_myNtypes[2] c_myNtypes[3] c_myNtypes[4] c_myNtypes[5] c_myNtypes[6] 
  177059            0     1206            0          704          400          100            1            1 
number of iterations: 4783 
  177060    1.0925898     1221            0          717          402          100            1            1 
Loop time of 1.09261 on 4 procs for 1 steps with 1221 atoms

fix_modify k1 demflag 1
fix_modify d2 demflag 1
fix_modify d1 demflag 1
fix_modify e1 demflag 1
timestep 1e-3
run 3000 pre no post no
Step CPU Atoms c_myNtypes[1] c_myNtypes[2] c_myNtypes[3] c_myNtypes[4] c_myNtypes[5] c_myNtypes[6] 
  177060            0     1221            0          717          402          100            1            1 
  180060   0.18237985     1221            0          717          402          100            1            1 
Loop time of 0.182407 on 4 procs for 3000 steps with 1221 atoms

timestep 1200
fix_modify k1 demflag 0
fix_modify d2 demflag 0
fix_modify d1 demflag 0
fix_modify e1 demflag 0
Step CPU Atoms c_myNtypes[1] c_myNtypes[2] c_myNtypes[3] c_myNtypes[4] c_myNtypes[5] c_myNtypes[6] 
  180060            0     1221            0          717          402          100            1            1 
number of iterations: 4783 
  180061    1.2888182     1242            0          730          410          100            1            1 
Loop time of 1.28884 on 4 procs for 1 steps with 1242 atoms

fix_modify k1 demflag 1
fix_modify d2 demflag 1
fix_modify d1 demflag 1
fix_modify e1 demflag 1
timestep 1e-3
run 3000 pre no post no
Step CPU Atoms c_myNtypes[1] c_myNtypes[2] c_myNtypes[3] c_myNtypes[4] c_myNtypes[5] c_myNtypes[6] 
  180061            0     1242            0          730          410          100            1            1 
  183061   0.13924511     1242            0          730          410          100            1            1 
Loop time of 0.139268 on 4 procs for 3000 steps with 1242 atoms

timestep 1200
fix_modify k1 demflag 0
fix_modify d2 demflag 0
fix_modify d1 demflag 0
fix_modify e1 demflag 0
Step CPU Atoms c_myNtypes[1] c_myNtypes[2] c_myNtypes[3] c_myNtypes[4] c_myNtypes[5] c_myNtypes[6] 
  183061            0     1242            0          730          410          100            1            1 
number of iterations: 4783 
  183062    1.1248587     1262            0          744          416          100            1            1 
Loop time of 1.12488 on 4 procs for 1 steps with 1262 atoms

fix_modify k1 demflag 1
fix_modify d2 demflag 1
fix_modify d1 demflag 1
fix_modify e1 demflag 1
timestep 1e-3
run 3000 pre no post no
Step CPU Atoms c_myNtypes[1] c_myNtypes[2] c_myNtypes[3] c_myNtypes[4] c_myNtypes[5] c_myNtypes[6] 
  183062            0     1262            0          744          416          100            1            1 
  186062   0.14339548     1262            0          744          416          100            1            1 
Loop time of 0.14342 on 4 procs for 3000 steps with 1262 atoms

timestep 1200
fix_modify k1 demflag 0
fix_modify d2 demflag 0
fix_modify d1 demflag 0
fix_modify e1 demflag 0
Step CPU Atoms c_myNtypes[1] c_myNtypes[2] c_myNtypes[3] c_myNtypes[4] c_myNtypes[5] c_myNtypes[6] 
  186062            0     1262            0          744          416          100            1            1 
number of iterations: 4783 
  186063    1.1091285     1281            0          761          418          100            1            1 
Loop time of 1.10915 on 4 procs for 1 steps with 1281 atoms

fix_modify k1 demflag 1
fix_modify d2 demflag 1
fix_modify d1 demflag 1
fix_modify e1 demflag 1
timestep 1e-3
run 3000 pre no post no
Step CPU Atoms c_myNtypes[1] c_myNtypes[2] c_myNtypes[3] c_myNtypes[4] c_myNtypes[5] c_myNtypes[6] 
  186063            0     1281            0          761          418          100            1            1 
  189063   0.15244601     1281            0          761          418          100            1            1 
Loop time of 0.152472 on 4 procs for 3000 steps with 1281 atoms

timestep 1200
fix_modify k1 demflag 0
fix_modify d2 demflag 0
fix_modify d1 demflag 0
fix_modify e1 demflag 0
Step CPU Atoms c_myNtypes[1] c_myNtypes[2] c_myNtypes[3] c_myNtypes[4] c_myNtypes[5] c_myNtypes[6] 
  189063            0     1281            0          761          418          100            1            1 
number of iterations: 4782 
  189064    1.0924599     1307            0          773          432          100            1            1 
Loop time of 1.09248 on 4 procs for 1 steps with 1307 atoms

fix_modify k1 demflag 1
fix_modify d2 demflag 1
fix_modify d1 demflag 1
fix_modify e1 demflag 1
timestep 1e-3
run 3000 pre no post no
Step CPU Atoms c_myNtypes[1] c_myNtypes[2] c_myNtypes[3] c_myNtypes[4] c_myNtypes[5] c_myNtypes[6] 
  189064            0     1307            0          773          432          100            1            1 
  192064   0.14860634     1307            0          773          432          100            1            1 
Loop time of 0.148633 on 4 procs for 3000 steps with 1307 atoms

timestep 1200
fix_modify k1 demflag 0
fix_modify d2 demflag 0
fix_modify d1 demflag 0
fix_modify e1 demflag 0
Step CPU Atoms c_myNtypes[1] c_myNtypes[2] c_myNtypes[3] c_myNtypes[4] c_myNtypes[5] c_myNtypes[6] 
  192064            0     1307            0          773          432          100            1            1 
number of iterations: 4782 
  192065    1.1139345     1337            0          793          442          100            1            1 
Loop time of 1.11395 on 4 procs for 1 steps with 1337 atoms

fix_modify k1 demflag 1
fix_modify d2 demflag 1
fix_modify d1 demflag 1
fix_modify e1 demflag 1
timestep 1e-3
run 3000 pre no post no
Step CPU Atoms c_myNtypes[1] c_myNtypes[2] c_myNtypes[3] c_myNtypes[4] c_myNtypes[5] c_myNtypes[6] 
  192065            0     1337            0          793          442          100            1            1 
  195065   0.16626062     1337            0          793          442          100            1            1 
Loop time of 0.166286 on 4 procs for 3000 steps with 1337 atoms

timestep 1200
fix_modify k1 demflag 0
fix_modify d2 demflag 0
fix_modify d1 demflag 0
fix_modify e1 demflag 0
Step CPU Atoms c_myNtypes[1] c_myNtypes[2] c_myNtypes[3] c_myNtypes[4] c_myNtypes[5] c_myNtypes[6] 
  195065            0     1337            0          793          442          100            1            1 
number of iterations: 4782 
  195066    1.1867771     1377            0          810          465          100            1            1 
Loop time of 1.1868 on 4 procs for 1 steps with 1377 atoms

fix_modify k1 demflag 1
fix_modify d2 demflag 1
fix_modify d1 demflag 1
fix_modify e1 demflag 1
timestep 1e-3
run 3000 pre no post no
Step CPU Atoms c_myNtypes[1] c_myNtypes[2] c_myNtypes[3] c_myNtypes[4] c_myNtypes[5] c_myNtypes[6] 
  195066            0     1377            0          810          465          100            1            1 
  198066   0.15421538     1377            0          810          465          100            1            1 
Loop time of 0.154238 on 4 procs for 3000 steps with 1377 atoms

timestep 1200
fix_modify k1 demflag 0
fix_modify d2 demflag 0
fix_modify d1 demflag 0
fix_modify e1 demflag 0
Step CPU Atoms c_myNtypes[1] c_myNtypes[2] c_myNtypes[3] c_myNtypes[4] c_myNtypes[5] c_myNtypes[6] 
  198066            0     1377            0          810          465          100            1            1 
number of iterations: 4782 
  198067    1.2032012     1404            0          825          477          100            1            1 
Loop time of 1.20322 on 4 procs for 1 steps with 1404 atoms

fix_modify k1 demflag 1
fix_modify d2 demflag 1
fix_modify d1 demflag 1
fix_modify e1 demflag 1
timestep 1e-3
run 3000 pre no post no
Step CPU Atoms c_myNtypes[1] c_myNtypes[2] c_myNtypes[3] c_myNtypes[4] c_myNtypes[5] c_myNtypes[6] 
  198067            0     1404            0          825          477          100            1            1 
  201067   0.17400181     1404            0          825          477          100            1            1 
Loop time of 0.174027 on 4 procs for 3000 steps with 1404 atoms

timestep 1200
fix_modify k1 demflag 0
fix_modify d2 demflag 0
fix_modify d1 demflag 0
fix_modify e1 demflag 0
Step CPU Atoms c_myNtypes[1] c_myNtypes[2] c_myNtypes[3] c_myNtypes[4] c_myNtypes[5] c_myNtypes[6] 
  201067            0     1404            0          825          477          100            1            1 
number of iterations: 4782 
  201068     1.362906     1431            0          839          490          100            1            1 
Loop time of 1.36296 on 4 procs for 1 steps with 1431 atoms

fix_modify k1 demflag 1
fix_modify d2 demflag 1
fix_modify d1 demflag 1
fix_modify e1 demflag 1
timestep 1e-3
run 3000 pre no post no
Step CPU Atoms c_myNtypes[1] c_myNtypes[2] c_myNtypes[3] c_myNtypes[4] c_myNtypes[5] c_myNtypes[6] 
  201068            0     1431            0          839          490          100            1            1 
  204068   0.18132418     1431            0          839          490          100            1            1 
Loop time of 0.181352 on 4 procs for 3000 steps with 1431 atoms

timestep 1200
fix_modify k1 demflag 0
fix_modify d2 demflag 0
fix_modify d1 demflag 0
fix_modify e1 demflag 0
Step CPU Atoms c_myNtypes[1] c_myNtypes[2] c_myNtypes[3] c_myNtypes[4] c_myNtypes[5] c_myNtypes[6] 
  204068            0     1431            0          839          490          100            1            1 
number of iterations: 6340 
  204069    1.7063767     1454            0          849          503          100            1            1 
Loop time of 1.7064 on 4 procs for 1 steps with 1454 atoms

fix_modify k1 demflag 1
fix_modify d2 demflag 1
fix_modify d1 demflag 1
fix_modify e1 demflag 1
timestep 1e-3
run 3000 pre no post no
Step CPU Atoms c_myNtypes[1] c_myNtypes[2] c_myNtypes[3] c_myNtypes[4] c_myNtypes[5] c_myNtypes[6] 
  204069            0     1454            0          849          503          100            1            1 
  207069   0.17997632     1454            0          849          503          100            1            1 
Loop time of 0.180003 on 4 procs for 3000 steps with 1454 atoms

timestep 1200
fix_modify k1 demflag 0
fix_modify d2 demflag 0
fix_modify d1 demflag 0
fix_modify e1 demflag 0
Step CPU Atoms c_myNtypes[1] c_myNtypes[2] c_myNtypes[3] c_myNtypes[4] c_myNtypes[5] c_myNtypes[6] 
  207069            0     1454            0          849          503          100            1            1 
number of iterations: 5989 
  207070    1.8889319     1475            0          862          511          100            1            1 
Loop time of 1.88896 on 4 procs for 1 steps with 1475 atoms

fix_modify k1 demflag 1
fix_modify d2 demflag 1
fix_modify d1 demflag 1
fix_modify e1 demflag 1
timestep 1e-3
run 3000 pre no post no
Step CPU Atoms c_myNtypes[1] c_myNtypes[2] c_myNtypes[3] c_myNtypes[4] c_myNtypes[5] c_myNtypes[6] 
  207070            0     1475            0          862          511          100            1            1 
  210070   0.16373744     1475            0          862          511          100            1            1 
Loop time of 0.163763 on 4 procs for 3000 steps with 1475 atoms

timestep 1200
fix_modify k1 demflag 0
fix_modify d2 demflag 0
fix_modify d1 demflag 0
fix_modify e1 demflag 0
Step CPU Atoms c_myNtypes[1] c_myNtypes[2] c_myNtypes[3] c_myNtypes[4] c_myNtypes[5] c_myNtypes[6] 
  210070            0     1475            0          862          511          100            1            1 
number of iterations: 5978 
  210071    1.6908133     2400            0          883          532          100          884            1 
Loop time of 1.69084 on 4 procs for 1 steps with 2400 atoms

fix_modify k1 demflag 1
fix_modify d2 demflag 1
fix_modify d1 demflag 1
fix_modify e1 demflag 1
timestep 1e-3
run 3000 pre no post no
Step CPU Atoms c_myNtypes[1] c_myNtypes[2] c_myNtypes[3] c_myNtypes[4] c_myNtypes[5] c_myNtypes[6] 
  210071            0     2400            0          883          532          100          884            1 
  213071   0.29636209     2400            0          883          532          100          884            1 
Loop time of 0.296389 on 4 procs for 3000 steps with 2400 atoms

timestep 1200
fix_modify k1 demflag 0
fix_modify d2 demflag 0
fix_modify d1 demflag 0
fix_modify e1 demflag 0
Step CPU Atoms c_myNtypes[1] c_myNtypes[2] c_myNtypes[3] c_myNtypes[4] c_myNtypes[5] c_myNtypes[6] 
  213071            0     2400            0          883          532          100          884            1 
number of iterations: 5979 
  213072    1.5486363     2446            0          906          555          100          884            1 
Loop time of 1.54866 on 4 procs for 1 steps with 2446 atoms

fix_modify k1 demflag 1
fix_modify d2 demflag 1
fix_modify d1 demflag 1
fix_modify e1 demflag 1
timestep 1e-3
run 3000 pre no post no
Step CPU Atoms c_myNtypes[1] c_myNtypes[2] c_myNtypes[3] c_myNtypes[4] c_myNtypes[5] c_myNtypes[6] 
  213072            0     2446            0          906          555          100          884            1 
  216072   0.28004065     2446            0          906          555          100          884            1 
Loop time of 0.280063 on 4 procs for 3000 steps with 2446 atoms

timestep 1200
fix_modify k1 demflag 0
fix_modify d2 demflag 0
fix_modify d1 demflag 0
fix_modify e1 demflag 0
Step CPU Atoms c_myNtypes[1] c_myNtypes[2] c_myNtypes[3] c_myNtypes[4] c_myNtypes[5] c_myNtypes[6] 
  216072            0     2446            0          906          555          100          884            1 
number of iterations: 5979 
  216073    1.7468835     2508            0          942          581          100          884            1 
Loop time of 1.74691 on 4 procs for 1 steps with 2508 atoms

fix_modify k1 demflag 1
fix_modify d2 demflag 1
fix_modify d1 demflag 1
fix_modify e1 demflag 1
timestep 1e-3
run 3000 pre no post no
Step CPU Atoms c_myNtypes[1] c_myNtypes[2] c_myNtypes[3] c_myNtypes[4] c_myNtypes[5] c_myNtypes[6] 
  216073            0     2508            0          942          581          100          884            1 
[...]
number of iterations: 7187 
  531178    2.4746741    40250            0        16816         5292          100        18041            1 
Loop time of 2.47471 on 4 procs for 1 steps with 40250 atoms

fix_modify k1 demflag 1
fix_modify d2 demflag 1
fix_modify d1 demflag 1
fix_modify e1 demflag 1
timestep 1e-3
run 3000 pre no post no
Step CPU Atoms c_myNtypes[1] c_myNtypes[2] c_myNtypes[3] c_myNtypes[4] c_myNtypes[5] c_myNtypes[6] 
  531178            0    40250            0        16816         5292          100        18041            1 
  534178     9.982847    40250            0        16816         5292          100        18041            1 
Loop time of 9.98288 on 4 procs for 3000 steps with 40250 atoms

timestep 1200
fix_modify k1 demflag 0
fix_modify d2 demflag 0
fix_modify d1 demflag 0
fix_modify e1 demflag 0
Step CPU Atoms c_myNtypes[1] c_myNtypes[2] c_myNtypes[3] c_myNtypes[4] c_myNtypes[5] c_myNtypes[6] 
  534178            0    40250            0        16816         5292          100        18041            1 
number of iterations: 7187 
  534179    2.2872952    41276            0        17225         5385          100        18565            1 
Loop time of 2.28733 on 4 procs for 1 steps with 41276 atoms

fix_modify k1 demflag 1
fix_modify d2 demflag 1
fix_modify d1 demflag 1
fix_modify e1 demflag 1
timestep 1e-3
run 3000 pre no post no
Step CPU Atoms c_myNtypes[1] c_myNtypes[2] c_myNtypes[3] c_myNtypes[4] c_myNtypes[5] c_myNtypes[6] 
  534179            0    41276            0        17225         5385          100        18565            1 
  537179    10.511342    41276            0        17225         5385          100        18565            1 
Loop time of 10.5114 on 4 procs for 3000 steps with 41276 atoms

timestep 1200
fix_modify k1 demflag 0
fix_modify d2 demflag 0
fix_modify d1 demflag 0
fix_modify e1 demflag 0
Step CPU Atoms c_myNtypes[1] c_myNtypes[2] c_myNtypes[3] c_myNtypes[4] c_myNtypes[5] c_myNtypes[6] 
  537179            0    41276            0        17225         5385          100        18565            1 
number of iterations: 7185 
  537180    2.3210823    42172            0        17605         5505          100        18961            1 
Loop time of 2.32111 on 4 procs for 1 steps with 42172 atoms

fix_modify k1 demflag 1
fix_modify d2 demflag 1
fix_modify d1 demflag 1
fix_modify e1 demflag 1
timestep 1e-3
run 3000 pre no post no
Step CPU Atoms c_myNtypes[1] c_myNtypes[2] c_myNtypes[3] c_myNtypes[4] c_myNtypes[5] c_myNtypes[6] 
  537180            0    42172            0        17605         5505          100        18961            1 
  540180    10.981429    42172            0        17605         5505          100        18961            1 
Loop time of 10.9815 on 4 procs for 3000 steps with 42172 atoms

timestep 1200
fix_modify k1 demflag 0
fix_modify d2 demflag 0
fix_modify d1 demflag 0
fix_modify e1 demflag 0
Step CPU Atoms c_myNtypes[1] c_myNtypes[2] c_myNtypes[3] c_myNtypes[4] c_myNtypes[5] c_myNtypes[6] 
  540180            0    42172            0        17605         5505          100        18961            1 
number of iterations: 7185 
  540181    2.5077581    42906            0        17990         5628          100        19187            1 
Loop time of 2.50779 on 4 procs for 1 steps with 42906 atoms

fix_modify k1 demflag 1
fix_modify d2 demflag 1
fix_modify d1 demflag 1
fix_modify e1 demflag 1
timestep 1e-3
run 3000 pre no post no
Step CPU Atoms c_myNtypes[1] c_myNtypes[2] c_myNtypes[3] c_myNtypes[4] c_myNtypes[5] c_myNtypes[6] 
  540181            0    42906            0        17990         5628          100        19187            1 
  543181    12.924753    42906            0        17990         5628          100        19187            1 
Loop time of 12.9248 on 4 procs for 3000 steps with 42906 atoms

timestep 1200
fix_modify k1 demflag 0
fix_modify d2 demflag 0
fix_modify d1 demflag 0
fix_modify e1 demflag 0
Step CPU Atoms c_myNtypes[1] c_myNtypes[2] c_myNtypes[3] c_myNtypes[4] c_myNtypes[5] c_myNtypes[6] 
  543181            0    42906            0        17990         5628          100        19187            1 
number of iterations: 7184 
  543182    2.5178501    43595            0        18474         5727          100        19293            1 
Loop time of 2.51788 on 4 procs for 1 steps with 43595 atoms

fix_modify k1 demflag 1
fix_modify d2 demflag 1
fix_modify d1 demflag 1
fix_modify e1 demflag 1
timestep 1e-3
run 3000 pre no post no
Step CPU Atoms c_myNtypes[1] c_myNtypes[2] c_myNtypes[3] c_myNtypes[4] c_myNtypes[5] c_myNtypes[6] 
  543182            0    43595            0        18474         5727          100        19293            1 
  546182    12.192626    43595            0        18474         5727          100        19293            1 
Loop time of 12.1927 on 4 procs for 3000 steps with 43595 atoms

timestep 1200
fix_modify k1 demflag 0
fix_modify d2 demflag 0
fix_modify d1 demflag 0
fix_modify e1 demflag 0
Step CPU Atoms c_myNtypes[1] c_myNtypes[2] c_myNtypes[3] c_myNtypes[4] c_myNtypes[5] c_myNtypes[6] 
  546182            0    43595            0        18474         5727          100        19293            1 
number of iterations: 7183 
  546183    2.3850237    44164            0        18933         5829          100        19301            1 
Loop time of 2.38506 on 4 procs for 1 steps with 44164 atoms

fix_modify k1 demflag 1
fix_modify d2 demflag 1
fix_modify d1 demflag 1
fix_modify e1 demflag 1
timestep 1e-3
run 3000 pre no post no
Step CPU Atoms c_myNtypes[1] c_myNtypes[2] c_myNtypes[3] c_myNtypes[4] c_myNtypes[5] c_myNtypes[6] 
  546183            0    44164            0        18933         5829          100        19301            1 
  549183    12.973934    44164            0        18933         5829          100        19301            1 
Loop time of 12.974 on 4 procs for 3000 steps with 44164 atoms

timestep 1200
fix_modify k1 demflag 0
fix_modify d2 demflag 0
fix_modify d1 demflag 0
fix_modify e1 demflag 0
Step CPU Atoms c_myNtypes[1] c_myNtypes[2] c_myNtypes[3] c_myNtypes[4] c_myNtypes[5] c_myNtypes[6] 
  549183            0    44164            0        18933         5829          100        19301            1 
number of iterations: 7182 
  549184    2.8256066    44726            0        19382         5942          100        19301            1 
Loop time of 2.82564 on 4 procs for 1 steps with 44726 atoms

fix_modify k1 demflag 1
fix_modify d2 demflag 1
fix_modify d1 demflag 1
fix_modify e1 demflag 1
timestep 1e-3
run 3000 pre no post no
Step CPU Atoms c_myNtypes[1] c_myNtypes[2] c_myNtypes[3] c_myNtypes[4] c_myNtypes[5] c_myNtypes[6] 
  549184            0    44726            0        19382         5942          100        19301            1 
  552184    12.748374    44726            0        19382         5942          100        19301            1 
Loop time of 12.7484 on 4 procs for 3000 steps with 44726 atoms

timestep 1200
fix_modify k1 demflag 0
fix_modify d2 demflag 0
fix_modify d1 demflag 0
fix_modify e1 demflag 0
Step CPU Atoms c_myNtypes[1] c_myNtypes[2] c_myNtypes[3] c_myNtypes[4] c_myNtypes[5] c_myNtypes[6] 
  552184            0    44726            0        19382         5942          100        19301            1 
number of iterations: 7181 
  552185    2.2901538    45295            0        19824         6069          100        19301            1 
Loop time of 2.29018 on 4 procs for 1 steps with 45295 atoms

fix_modify k1 demflag 1
fix_modify d2 demflag 1
fix_modify d1 demflag 1
fix_modify e1 demflag 1
timestep 1e-3
run 3000 pre no post no
Step CPU Atoms c_myNtypes[1] c_myNtypes[2] c_myNtypes[3] c_myNtypes[4] c_myNtypes[5] c_myNtypes[6] 
  552185            0    45295            0        19824         6069          100        19301            1 
  555185    14.046214    45295            0        19824         6069          100        19301            1 
Loop time of 14.0462 on 4 procs for 3000 steps with 45295 atoms

timestep 1200
fix_modify k1 demflag 0
fix_modify d2 demflag 0
fix_modify d1 demflag 0
fix_modify e1 demflag 0
Step CPU Atoms c_myNtypes[1] c_myNtypes[2] c_myNtypes[3] c_myNtypes[4] c_myNtypes[5] c_myNtypes[6] 
  555185            0    45295            0        19824         6069          100        19301            1 
number of iterations: 7180 
  555186    2.5844609    45872            0        20270         6200          100        19301            1 
Loop time of 2.58449 on 4 procs for 1 steps with 45872 atoms

fix_modify k1 demflag 1
fix_modify d2 demflag 1
fix_modify d1 demflag 1
fix_modify e1 demflag 1
timestep 1e-3
run 3000 pre no post no
Step CPU Atoms c_myNtypes[1] c_myNtypes[2] c_myNtypes[3] c_myNtypes[4] c_myNtypes[5] c_myNtypes[6] 
  555186            0    45872            0        20270         6200          100        19301            1 
  558186    14.137213    45872            0        20270         6200          100        19301            1 
Loop time of 14.1372 on 4 procs for 3000 steps with 45872 atoms

timestep 1200
fix_modify k1 demflag 0
fix_modify d2 demflag 0
fix_modify d1 demflag 0
fix_modify e1 demflag 0
Step CPU Atoms c_myNtypes[1] c_myNtypes[2] c_myNtypes[3] c_myNtypes[4] c_myNtypes[5] c_myNtypes[6] 
  558186            0    45872            0        20270         6200          100        19301            1 
number of iterations: 7179 
  558187    2.4652243    46436            0        20689         6345          100        19301            1 
Loop time of 2.46526 on 4 procs for 1 steps with 46436 atoms

fix_modify k1 demflag 1
fix_modify d2 demflag 1
fix_modify d1 demflag 1
fix_modify e1 demflag 1
timestep 1e-3
run 3000 pre no post no
Step CPU Atoms c_myNtypes[1] c_myNtypes[2] c_myNtypes[3] c_myNtypes[4] c_myNtypes[5] c_myNtypes[6] 
  558187            0    46436            0        20689         6345          100        19301            1 
  561187     13.91382    46436            0        20689         6345          100        19301            1 
Loop time of 13.9139 on 4 procs for 3000 steps with 46436 atoms

timestep 1200
fix_modify k1 demflag 0
fix_modify d2 demflag 0
fix_modify d1 demflag 0
fix_modify e1 demflag 0
Step CPU Atoms c_myNtypes[1] c_myNtypes[2] c_myNtypes[3] c_myNtypes[4] c_myNtypes[5] c_myNtypes[6] 
  561187            0    46436            0        20689         6345          100        19301            1 
number of iterations: 7178 
  561188    2.5444492    46994            0        21134         6458          100        19301            1 
Loop time of 2.54448 on 4 procs for 1 steps with 46994 atoms

fix_modify k1 demflag 1
fix_modify d2 demflag 1
fix_modify d1 demflag 1
fix_modify e1 demflag 1
timestep 1e-3
run 3000 pre no post no
Step CPU Atoms c_myNtypes[1] c_myNtypes[2] c_myNtypes[3] c_myNtypes[4] c_myNtypes[5] c_myNtypes[6] 
  561188            0    46994            0        21134         6458          100        19301            1 
  564188    14.701299    46994            0        21134         6458          100        19301            1 
Loop time of 14.7013 on 4 procs for 3000 steps with 46994 atoms

timestep 1200
fix_modify k1 demflag 0
fix_modify d2 demflag 0
fix_modify d1 demflag 0
fix_modify e1 demflag 0
Step CPU Atoms c_myNtypes[1] c_myNtypes[2] c_myNtypes[3] c_myNtypes[4] c_myNtypes[5] c_myNtypes[6] 
  564188            0    46994            0        21134         6458          100        19301            1 
number of iterations: 7177 
  564189    2.6701022    47659            0        21671         6586          100        19301            1 
Loop time of 2.67014 on 4 procs for 1 steps with 47659 atoms

fix_modify k1 demflag 1
fix_modify d2 demflag 1
fix_modify d1 demflag 1
fix_modify e1 demflag 1
timestep 1e-3
run 3000 pre no post no
Step CPU Atoms c_myNtypes[1] c_myNtypes[2] c_myNtypes[3] c_myNtypes[4] c_myNtypes[5] c_myNtypes[6] 
  564189            0    47659            0        21671         6586          100        19301            1 
  567189    15.229255    47659            0        21671         6586          100        19301            1 
Loop time of 15.2293 on 4 procs for 3000 steps with 47659 atoms

timestep 1200
fix_modify k1 demflag 0
fix_modify d2 demflag 0
fix_modify d1 demflag 0
fix_modify e1 demflag 0
Step CPU Atoms c_myNtypes[1] c_myNtypes[2] c_myNtypes[3] c_myNtypes[4] c_myNtypes[5] c_myNtypes[6] 
  567189            0    47659            0        21671         6586          100        19301            1 
number of iterations: 7175 
  567190    2.5611551    48269            0        22151         6716          100        19301            1 
Loop time of 2.56119 on 4 procs for 1 steps with 48269 atoms

fix_modify k1 demflag 1
fix_modify d2 demflag 1
fix_modify d1 demflag 1
fix_modify e1 demflag 1
timestep 1e-3
run 3000 pre no post no
Step CPU Atoms c_myNtypes[1] c_myNtypes[2] c_myNtypes[3] c_myNtypes[4] c_myNtypes[5] c_myNtypes[6] 
  567190            0    48269            0        22151         6716          100        19301            1 
  570190    16.173908    48269            0        22151         6716          100        19301            1 
Loop time of 16.1739 on 4 procs for 3000 steps with 48269 atoms

timestep 1200
fix_modify k1 demflag 0
fix_modify d2 demflag 0
fix_modify d1 demflag 0
fix_modify e1 demflag 0
Step CPU Atoms c_myNtypes[1] c_myNtypes[2] c_myNtypes[3] c_myNtypes[4] c_myNtypes[5] c_myNtypes[6] 
  570190            0    48269            0        22151         6716          100        19301            1 
number of iterations: 7174 
  570191    2.5625281    48854            0        22606         6846          100        19301            1 
Loop time of 2.56256 on 4 procs for 1 steps with 48854 atoms

fix_modify k1 demflag 1
fix_modify d2 demflag 1
fix_modify d1 demflag 1
fix_modify e1 demflag 1
timestep 1e-3
run 3000 pre no post no
Step CPU Atoms c_myNtypes[1] c_myNtypes[2] c_myNtypes[3] c_myNtypes[4] c_myNtypes[5] c_myNtypes[6] 
  570191            0    48854            0        22606         6846          100        19301            1 
  573191     14.63736    48854            0        22606         6846          100        19301            1 
Loop time of 14.6374 on 4 procs for 3000 steps with 48854 atoms

timestep 1200
fix_modify k1 demflag 0
fix_modify d2 demflag 0
fix_modify d1 demflag 0
fix_modify e1 demflag 0
Step CPU Atoms c_myNtypes[1] c_myNtypes[2] c_myNtypes[3] c_myNtypes[4] c_myNtypes[5] c_myNtypes[6] 
  573191            0    48854            0        22606         6846          100        19301            1 
number of iterations: 7173 
  573192    2.5359226    49454            0        23076         6976          100        19301            1 
Loop time of 2.53595 on 4 procs for 1 steps with 49454 atoms

fix_modify k1 demflag 1
fix_modify d2 demflag 1
fix_modify d1 demflag 1
fix_modify e1 demflag 1
timestep 1e-3
run 3000 pre no post no
Step CPU Atoms c_myNtypes[1] c_myNtypes[2] c_myNtypes[3] c_myNtypes[4] c_myNtypes[5] c_myNtypes[6] 
  573192            0    49454            0        23076         6976          100        19301            1 
  576192    14.899993    49454            0        23076         6976          100        19301            1 
Loop time of 14.9001 on 4 procs for 3000 steps with 49454 atoms

timestep 1200
fix_modify k1 demflag 0
fix_modify d2 demflag 0
fix_modify d1 demflag 0
fix_modify e1 demflag 0
Step CPU Atoms c_myNtypes[1] c_myNtypes[2] c_myNtypes[3] c_myNtypes[4] c_myNtypes[5] c_myNtypes[6] 
  576192            0    49454            0        23076         6976          100        19301            1 
number of iterations: 7172 
  576193    2.6984276    50053            0        23519         7132          100        19301            1 
Loop time of 2.69846 on 4 procs for 1 steps with 50053 atoms

fix_modify k1 demflag 1
fix_modify d2 demflag 1
fix_modify d1 demflag 1
fix_modify e1 demflag 1
timestep 1e-3
run 3000 pre no post no
Step CPU Atoms c_myNtypes[1] c_myNtypes[2] c_myNtypes[3] c_myNtypes[4] c_myNtypes[5] c_myNtypes[6] 
  576193            0    50053            0        23519         7132          100        19301            1 
  579193      17.3999    50053            0        23519         7132          100        19301            1 
Loop time of 17.3999 on 4 procs for 3000 steps with 50053 atoms

timestep 1200
fix_modify k1 demflag 0
fix_modify d2 demflag 0
fix_modify d1 demflag 0
fix_modify e1 demflag 0
Step CPU Atoms c_myNtypes[1] c_myNtypes[2] c_myNtypes[3] c_myNtypes[4] c_myNtypes[5] c_myNtypes[6] 
  579193            0    50053            0        23519         7132          100        19301            1 
number of iterations: 7171 
  579194    2.7584665    50692            0        24016         7274          100        19301            1 
Loop time of 2.7585 on 4 procs for 1 steps with 50692 atoms

fix_modify k1 demflag 1
fix_modify d2 demflag 1
fix_modify d1 demflag 1
fix_modify e1 demflag 1
timestep 1e-3
run 3000 pre no post no
Step CPU Atoms c_myNtypes[1] c_myNtypes[2] c_myNtypes[3] c_myNtypes[4] c_myNtypes[5] c_myNtypes[6] 
  579194            0    50692            0        24016         7274          100        19301            1 
  582194    17.190127    50692            0        24016         7274          100        19301            1 
Loop time of 17.1902 on 4 procs for 3000 steps with 50692 atoms

timestep 1200
fix_modify k1 demflag 0
fix_modify d2 demflag 0
fix_modify d1 demflag 0
fix_modify e1 demflag 0
Step CPU Atoms c_myNtypes[1] c_myNtypes[2] c_myNtypes[3] c_myNtypes[4] c_myNtypes[5] c_myNtypes[6] 
  582194            0    50692            0        24016         7274          100        19301            1 
number of iterations: 7170 
  582195    2.5314792    51366            0        24534         7430          100        19301            1 
Loop time of 2.53151 on 4 procs for 1 steps with 51366 atoms

fix_modify k1 demflag 1
fix_modify d2 demflag 1
fix_modify d1 demflag 1
fix_modify e1 demflag 1
timestep 1e-3
run 3000 pre no post no
Step CPU Atoms c_myNtypes[1] c_myNtypes[2] c_myNtypes[3] c_myNtypes[4] c_myNtypes[5] c_myNtypes[6] 
  582195            0    51366            0        24534         7430          100        19301            1 
  585195    17.469774    51366            0        24534         7430          100        19301            1 
Loop time of 17.4698 on 4 procs for 3000 steps with 51366 atoms

timestep 1200
fix_modify k1 demflag 0
fix_modify d2 demflag 0
fix_modify d1 demflag 0
fix_modify e1 demflag 0
Step CPU Atoms c_myNtypes[1] c_myNtypes[2] c_myNtypes[3] c_myNtypes[4] c_myNtypes[5] c_myNtypes[6] 
  585195            0    51366            0        24534         7430          100        19301            1 
number of iterations: 7168 
  585196    3.0937616    52063            0        25081         7580          100        19301            1 
Loop time of 3.09379 on 4 procs for 1 steps with 52063 atoms

fix_modify k1 demflag 1
fix_modify d2 demflag 1
fix_modify d1 demflag 1
fix_modify e1 demflag 1
timestep 1e-3
run 3000 pre no post no
Step CPU Atoms c_myNtypes[1] c_myNtypes[2] c_myNtypes[3] c_myNtypes[4] c_myNtypes[5] c_myNtypes[6] 
  585196            0    52063            0        25081         7580          100        19301            1 
  588196    16.455591    52063            0        25081         7580          100        19301            1 
Loop time of 16.4556 on 4 procs for 3000 steps with 52063 atoms

timestep 1200
fix_modify k1 demflag 0
fix_modify d2 demflag 0
fix_modify d1 demflag 0
fix_modify e1 demflag 0
Step CPU Atoms c_myNtypes[1] c_myNtypes[2] c_myNtypes[3] c_myNtypes[4] c_myNtypes[5] c_myNtypes[6] 
  588196            0    52063            0        25081         7580          100        19301            1 
number of iterations: 7167 
  588197    2.7189082    52790            0        25634         7754          100        19301            1 
Loop time of 2.71894 on 4 procs for 1 steps with 52790 atoms

