  Granular Flow Simulation 

       250 atoms 
       2 atom types 
       3 nutrients

   0.0   2.0e-04  xlo xhi 
   0.0   1.0e-05  ylo yhi 
   0.0   2.0e-04  zlo zhi 

 Atoms

	1 1 7.80e-7 290 2.00e-6 1.00e-6 1.00e-6 7.80e-7
	2 2 7.80e-7 290 6.00e-6 1.00e-6 1.00e-6 7.80e-7
	3 1 7.80e-7 290 1.00e-5 1.00e-6 1.00e-6 7.80e-7
	4 2 7.80e-7 290 1.40e-5 1.00e-6 1.00e-6 7.80e-7
	5 1 7.80e-7 290 1.80e-5 1.00e-6 1.00e-6 7.80e-7
	6 2 7.80e-7 290 2.20e-5 1.00e-6 1.00e-6 7.80e-7
	7 1 7.80e-7 290 2.60e-5 1.00e-6 1.00e-6 7.80e-7
	8 2 7.80e-7 290 3.00e-5 1.00e-6 1.00e-6 7.80e-7
	9 1 7.80e-7 290 3.40e-5 1.00e-6 1.00e-6 7.80e-7
	10 2 7.80e-7 290 3.80e-5 1.00e-6 1.00e-6 7.80e-7
	11 1 7.80e-7 290 4.20e-5 1.00e-6 1.00e-6 7.80e-7
	12 2 7.80e-7 290 4.60e-5 1.00e-6 1.00e-6 7.80e-7
	13 1 7.80e-7 290 5.00e-5 1.00e-6 1.00e-6 7.80e-7
	14 2 7.80e-7 290 5.40e-5 1.00e-6 1.00e-6 7.80e-7
	15 1 7.80e-7 290 5.80e-5 1.00e-6 1.00e-6 7.80e-7
	16 2 7.80e-7 290 6.20e-5 1.00e-6 1.00e-6 7.80e-7
	17 1 7.80e-7 290 6.60e-5 1.00e-6 1.00e-6 7.80e-7
	18 2 7.80e-7 290 7.00e-5 1.00e-6 1.00e-6 7.80e-7
	19 1 7.80e-7 290 7.40e-5 1.00e-6 1.00e-6 7.80e-7
	20 2 7.80e-7 290 7.80e-5 1.00e-6 1.00e-6 7.80e-7
	21 1 7.80e-7 290 8.20e-5 1.00e-6 1.00e-6 7.80e-7
	22 2 7.80e-7 290 8.60e-5 1.00e-6 1.00e-6 7.80e-7
	23 1 7.80e-7 290 9.00e-5 1.00e-6 1.00e-6 7.80e-7
	24 2 7.80e-7 290 9.40e-5 1.00e-6 1.00e-6 7.80e-7
	25 1 7.80e-7 290 9.80e-5 1.00e-6 1.00e-6 7.80e-7
	26 2 7.80e-7 290 1.02e-4 1.00e-6 1.00e-6 7.80e-7
	27 1 7.80e-7 290 1.06e-4 1.00e-6 1.00e-6 7.80e-7
	28 2 7.80e-7 290 1.10e-4 1.00e-6 1.00e-6 7.80e-7
	29 1 7.80e-7 290 1.14e-4 1.00e-6 1.00e-6 7.80e-7
	30 2 7.80e-7 290 1.18e-4 1.00e-6 1.00e-6 7.80e-7
	31 1 7.80e-7 290 1.22e-4 1.00e-6 1.00e-6 7.80e-7
	32 2 7.80e-7 290 1.26e-4 1.00e-6 1.00e-6 7.80e-7
	33 1 7.80e-7 290 1.30e-4 1.00e-6 1.00e-6 7.80e-7
	34 2 7.80e-7 290 1.34e-4 1.00e-6 1.00e-6 7.80e-7
	35 1 7.80e-7 290 1.38e-4 1.00e-6 1.00e-6 7.80e-7
	36 2 7.80e-7 290 1.42e-4 1.00e-6 1.00e-6 7.80e-7
	37 1 7.80e-7 290 1.46e-4 1.00e-6 1.00e-6 7.80e-7
	38 2 7.80e-7 290 1.50e-4 1.00e-6 1.00e-6 7.80e-7
	39 1 7.80e-7 290 1.54e-4 1.00e-6 1.00e-6 7.80e-7
	40 2 7.80e-7 290 1.58e-4 1.00e-6 1.00e-6 7.80e-7
	41 1 7.80e-7 290 1.62e-4 1.00e-6 1.00e-6 7.80e-7
	42 2 7.80e-7 290 1.66e-4 1.00e-6 1.00e-6 7.80e-7
	43 1 7.80e-7 290 1.70e-4 1.00e-6 1.00e-6 7.80e-7
	44 2 7.80e-7 290 1.74e-4 1.00e-6 1.00e-6 7.80e-7
	45 1 7.80e-7 290 1.78e-4 1.00e-6 1.00e-6 7.80e-7
	46 2 7.80e-7 290 1.82e-4 1.00e-6 1.00e-6 7.80e-7
	47 1 7.80e-7 290 1.86e-4 1.00e-6 1.00e-6 7.80e-7
	48 2 7.80e-7 290 1.90e-4 1.00e-6 1.00e-6 7.80e-7
	49 1 7.80e-7 290 1.94e-4 1.00e-6 1.00e-6 7.80e-7
	50 2 7.80e-7 290 1.98e-4 1.00e-6 1.00e-6 7.80e-7
	51 1 7.80e-7 290 2.00e-6 3.00e-6 1.00e-6 7.80e-7
	52 2 7.80e-7 290 6.00e-6 3.00e-6 1.00e-6 7.80e-7
	53 1 7.80e-7 290 1.00e-5 3.00e-6 1.00e-6 7.80e-7
	54 2 7.80e-7 290 1.40e-5 3.00e-6 1.00e-6 7.80e-7
	55 1 7.80e-7 290 1.80e-5 3.00e-6 1.00e-6 7.80e-7
	56 2 7.80e-7 290 2.20e-5 3.00e-6 1.00e-6 7.80e-7
	57 1 7.80e-7 290 2.60e-5 3.00e-6 1.00e-6 7.80e-7
	58 2 7.80e-7 290 3.00e-5 3.00e-6 1.00e-6 7.80e-7
	59 1 7.80e-7 290 3.40e-5 3.00e-6 1.00e-6 7.80e-7
	60 2 7.80e-7 290 3.80e-5 3.00e-6 1.00e-6 7.80e-7
	61 1 7.80e-7 290 4.20e-5 3.00e-6 1.00e-6 7.80e-7
	62 2 7.80e-7 290 4.60e-5 3.00e-6 1.00e-6 7.80e-7
	63 1 7.80e-7 290 5.00e-5 3.00e-6 1.00e-6 7.80e-7
	64 2 7.80e-7 290 5.40e-5 3.00e-6 1.00e-6 7.80e-7
	65 1 7.80e-7 290 5.80e-5 3.00e-6 1.00e-6 7.80e-7
	66 2 7.80e-7 290 6.20e-5 3.00e-6 1.00e-6 7.80e-7
	67 1 7.80e-7 290 6.60e-5 3.00e-6 1.00e-6 7.80e-7
	68 2 7.80e-7 290 7.00e-5 3.00e-6 1.00e-6 7.80e-7
	69 1 7.80e-7 290 7.40e-5 3.00e-6 1.00e-6 7.80e-7
	70 2 7.80e-7 290 7.80e-5 3.00e-6 1.00e-6 7.80e-7
	71 1 7.80e-7 290 8.20e-5 3.00e-6 1.00e-6 7.80e-7
	72 2 7.80e-7 290 8.60e-5 3.00e-6 1.00e-6 7.80e-7
	73 1 7.80e-7 290 9.00e-5 3.00e-6 1.00e-6 7.80e-7
	74 2 7.80e-7 290 9.40e-5 3.00e-6 1.00e-6 7.80e-7
	75 1 7.80e-7 290 9.80e-5 3.00e-6 1.00e-6 7.80e-7
	76 2 7.80e-7 290 1.02e-4 3.00e-6 1.00e-6 7.80e-7
	77 1 7.80e-7 290 1.06e-4 3.00e-6 1.00e-6 7.80e-7
	78 2 7.80e-7 290 1.10e-4 3.00e-6 1.00e-6 7.80e-7
	79 1 7.80e-7 290 1.14e-4 3.00e-6 1.00e-6 7.80e-7
	80 2 7.80e-7 290 1.18e-4 3.00e-6 1.00e-6 7.80e-7
	81 1 7.80e-7 290 1.22e-4 3.00e-6 1.00e-6 7.80e-7
	82 2 7.80e-7 290 1.26e-4 3.00e-6 1.00e-6 7.80e-7
	83 1 7.80e-7 290 1.30e-4 3.00e-6 1.00e-6 7.80e-7
	84 2 7.80e-7 290 1.34e-4 3.00e-6 1.00e-6 7.80e-7
	85 1 7.80e-7 290 1.38e-4 3.00e-6 1.00e-6 7.80e-7
	86 2 7.80e-7 290 1.42e-4 3.00e-6 1.00e-6 7.80e-7
	87 1 7.80e-7 290 1.46e-4 3.00e-6 1.00e-6 7.80e-7
	88 2 7.80e-7 290 1.50e-4 3.00e-6 1.00e-6 7.80e-7
	89 1 7.80e-7 290 1.54e-4 3.00e-6 1.00e-6 7.80e-7
	90 2 7.80e-7 290 1.58e-4 3.00e-6 1.00e-6 7.80e-7
	91 1 7.80e-7 290 1.62e-4 3.00e-6 1.00e-6 7.80e-7
	92 2 7.80e-7 290 1.66e-4 3.00e-6 1.00e-6 7.80e-7
	93 1 7.80e-7 290 1.70e-4 3.00e-6 1.00e-6 7.80e-7
	94 2 7.80e-7 290 1.74e-4 3.00e-6 1.00e-6 7.80e-7
	95 1 7.80e-7 290 1.78e-4 3.00e-6 1.00e-6 7.80e-7
	96 2 7.80e-7 290 1.82e-4 3.00e-6 1.00e-6 7.80e-7
	97 1 7.80e-7 290 1.86e-4 3.00e-6 1.00e-6 7.80e-7
	98 2 7.80e-7 290 1.90e-4 3.00e-6 1.00e-6 7.80e-7
	99 1 7.80e-7 290 1.94e-4 3.00e-6 1.00e-6 7.80e-7
	100 2 7.80e-7 290 1.98e-4 3.00e-6 1.00e-6 7.80e-7
	101 1 7.80e-7 290 2.00e-6 5.00e-6 1.00e-6 7.80e-7
	102 2 7.80e-7 290 6.00e-6 5.00e-6 1.00e-6 7.80e-7
	103 1 7.80e-7 290 1.00e-5 5.00e-6 1.00e-6 7.80e-7
	104 2 7.80e-7 290 1.40e-5 5.00e-6 1.00e-6 7.80e-7
	105 1 7.80e-7 290 1.80e-5 5.00e-6 1.00e-6 7.80e-7
	106 2 7.80e-7 290 2.20e-5 5.00e-6 1.00e-6 7.80e-7
	107 1 7.80e-7 290 2.60e-5 5.00e-6 1.00e-6 7.80e-7
	108 2 7.80e-7 290 3.00e-5 5.00e-6 1.00e-6 7.80e-7
	109 1 7.80e-7 290 3.40e-5 5.00e-6 1.00e-6 7.80e-7
	110 2 7.80e-7 290 3.80e-5 5.00e-6 1.00e-6 7.80e-7
	111 1 7.80e-7 290 4.20e-5 5.00e-6 1.00e-6 7.80e-7
	112 2 7.80e-7 290 4.60e-5 5.00e-6 1.00e-6 7.80e-7
	113 1 7.80e-7 290 5.00e-5 5.00e-6 1.00e-6 7.80e-7
	114 2 7.80e-7 290 5.40e-5 5.00e-6 1.00e-6 7.80e-7
	115 1 7.80e-7 290 5.80e-5 5.00e-6 1.00e-6 7.80e-7
	116 2 7.80e-7 290 6.20e-5 5.00e-6 1.00e-6 7.80e-7
	117 1 7.80e-7 290 6.60e-5 5.00e-6 1.00e-6 7.80e-7
	118 2 7.80e-7 290 7.00e-5 5.00e-6 1.00e-6 7.80e-7
	119 1 7.80e-7 290 7.40e-5 5.00e-6 1.00e-6 7.80e-7
	120 2 7.80e-7 290 7.80e-5 5.00e-6 1.00e-6 7.80e-7
	121 1 7.80e-7 290 8.20e-5 5.00e-6 1.00e-6 7.80e-7
	122 2 7.80e-7 290 8.60e-5 5.00e-6 1.00e-6 7.80e-7
	123 1 7.80e-7 290 9.00e-5 5.00e-6 1.00e-6 7.80e-7
	124 2 7.80e-7 290 9.40e-5 5.00e-6 1.00e-6 7.80e-7
	125 1 7.80e-7 290 9.80e-5 5.00e-6 1.00e-6 7.80e-7
	126 2 7.80e-7 290 1.02e-4 5.00e-6 1.00e-6 7.80e-7
	127 1 7.80e-7 290 1.06e-4 5.00e-6 1.00e-6 7.80e-7
	128 2 7.80e-7 290 1.10e-4 5.00e-6 1.00e-6 7.80e-7
	129 1 7.80e-7 290 1.14e-4 5.00e-6 1.00e-6 7.80e-7
	130 2 7.80e-7 290 1.18e-4 5.00e-6 1.00e-6 7.80e-7
	131 1 7.80e-7 290 1.22e-4 5.00e-6 1.00e-6 7.80e-7
	132 2 7.80e-7 290 1.26e-4 5.00e-6 1.00e-6 7.80e-7
	133 1 7.80e-7 290 1.30e-4 5.00e-6 1.00e-6 7.80e-7
	134 2 7.80e-7 290 1.34e-4 5.00e-6 1.00e-6 7.80e-7
	135 1 7.80e-7 290 1.38e-4 5.00e-6 1.00e-6 7.80e-7
	136 2 7.80e-7 290 1.42e-4 5.00e-6 1.00e-6 7.80e-7
	137 1 7.80e-7 290 1.46e-4 5.00e-6 1.00e-6 7.80e-7
	138 2 7.80e-7 290 1.50e-4 5.00e-6 1.00e-6 7.80e-7
	139 1 7.80e-7 290 1.54e-4 5.00e-6 1.00e-6 7.80e-7
	140 2 7.80e-7 290 1.58e-4 5.00e-6 1.00e-6 7.80e-7
	141 1 7.80e-7 290 1.62e-4 5.00e-6 1.00e-6 7.80e-7
	142 2 7.80e-7 290 1.66e-4 5.00e-6 1.00e-6 7.80e-7
	143 1 7.80e-7 290 1.70e-4 5.00e-6 1.00e-6 7.80e-7
	144 2 7.80e-7 290 1.74e-4 5.00e-6 1.00e-6 7.80e-7
	145 1 7.80e-7 290 1.78e-4 5.00e-6 1.00e-6 7.80e-7
	146 2 7.80e-7 290 1.82e-4 5.00e-6 1.00e-6 7.80e-7
	147 1 7.80e-7 290 1.86e-4 5.00e-6 1.00e-6 7.80e-7
	148 2 7.80e-7 290 1.90e-4 5.00e-6 1.00e-6 7.80e-7
	149 1 7.80e-7 290 1.94e-4 5.00e-6 1.00e-6 7.80e-7
	150 2 7.80e-7 290 1.98e-4 5.00e-6 1.00e-6 7.80e-7
	151 1 7.80e-7 290 2.00e-6 7.00e-6 1.00e-6 7.80e-7
	152 2 7.80e-7 290 6.00e-6 7.00e-6 1.00e-6 7.80e-7
	153 1 7.80e-7 290 1.00e-5 7.00e-6 1.00e-6 7.80e-7
	154 2 7.80e-7 290 1.40e-5 7.00e-6 1.00e-6 7.80e-7
	155 1 7.80e-7 290 1.80e-5 7.00e-6 1.00e-6 7.80e-7
	156 2 7.80e-7 290 2.20e-5 7.00e-6 1.00e-6 7.80e-7
	157 1 7.80e-7 290 2.60e-5 7.00e-6 1.00e-6 7.80e-7
	158 2 7.80e-7 290 3.00e-5 7.00e-6 1.00e-6 7.80e-7
	159 1 7.80e-7 290 3.40e-5 7.00e-6 1.00e-6 7.80e-7
	160 2 7.80e-7 290 3.80e-5 7.00e-6 1.00e-6 7.80e-7
	161 1 7.80e-7 290 4.20e-5 7.00e-6 1.00e-6 7.80e-7
	162 2 7.80e-7 290 4.60e-5 7.00e-6 1.00e-6 7.80e-7
	163 1 7.80e-7 290 5.00e-5 7.00e-6 1.00e-6 7.80e-7
	164 2 7.80e-7 290 5.40e-5 7.00e-6 1.00e-6 7.80e-7
	165 1 7.80e-7 290 5.80e-5 7.00e-6 1.00e-6 7.80e-7
	166 2 7.80e-7 290 6.20e-5 7.00e-6 1.00e-6 7.80e-7
	167 1 7.80e-7 290 6.60e-5 7.00e-6 1.00e-6 7.80e-7
	168 2 7.80e-7 290 7.00e-5 7.00e-6 1.00e-6 7.80e-7
	169 1 7.80e-7 290 7.40e-5 7.00e-6 1.00e-6 7.80e-7
	170 2 7.80e-7 290 7.80e-5 7.00e-6 1.00e-6 7.80e-7
	171 1 7.80e-7 290 8.20e-5 7.00e-6 1.00e-6 7.80e-7
	172 2 7.80e-7 290 8.60e-5 7.00e-6 1.00e-6 7.80e-7
	173 1 7.80e-7 290 9.00e-5 7.00e-6 1.00e-6 7.80e-7
	174 2 7.80e-7 290 9.40e-5 7.00e-6 1.00e-6 7.80e-7
	175 1 7.80e-7 290 9.80e-5 7.00e-6 1.00e-6 7.80e-7
	176 2 7.80e-7 290 1.02e-4 7.00e-6 1.00e-6 7.80e-7
	177 1 7.80e-7 290 1.06e-4 7.00e-6 1.00e-6 7.80e-7
	178 2 7.80e-7 290 1.10e-4 7.00e-6 1.00e-6 7.80e-7
	179 1 7.80e-7 290 1.14e-4 7.00e-6 1.00e-6 7.80e-7
	180 2 7.80e-7 290 1.18e-4 7.00e-6 1.00e-6 7.80e-7
	181 1 7.80e-7 290 1.22e-4 7.00e-6 1.00e-6 7.80e-7
	182 2 7.80e-7 290 1.26e-4 7.00e-6 1.00e-6 7.80e-7
	183 1 7.80e-7 290 1.30e-4 7.00e-6 1.00e-6 7.80e-7
	184 2 7.80e-7 290 1.34e-4 7.00e-6 1.00e-6 7.80e-7
	185 1 7.80e-7 290 1.38e-4 7.00e-6 1.00e-6 7.80e-7
	186 2 7.80e-7 290 1.42e-4 7.00e-6 1.00e-6 7.80e-7
	187 1 7.80e-7 290 1.46e-4 7.00e-6 1.00e-6 7.80e-7
	188 2 7.80e-7 290 1.50e-4 7.00e-6 1.00e-6 7.80e-7
	189 1 7.80e-7 290 1.54e-4 7.00e-6 1.00e-6 7.80e-7
	190 2 7.80e-7 290 1.58e-4 7.00e-6 1.00e-6 7.80e-7
	191 1 7.80e-7 290 1.62e-4 7.00e-6 1.00e-6 7.80e-7
	192 2 7.80e-7 290 1.66e-4 7.00e-6 1.00e-6 7.80e-7
	193 1 7.80e-7 290 1.70e-4 7.00e-6 1.00e-6 7.80e-7
	194 2 7.80e-7 290 1.74e-4 7.00e-6 1.00e-6 7.80e-7
	195 1 7.80e-7 290 1.78e-4 7.00e-6 1.00e-6 7.80e-7
	196 2 7.80e-7 290 1.82e-4 7.00e-6 1.00e-6 7.80e-7
	197 1 7.80e-7 290 1.86e-4 7.00e-6 1.00e-6 7.80e-7
	198 2 7.80e-7 290 1.90e-4 7.00e-6 1.00e-6 7.80e-7
	199 1 7.80e-7 290 1.94e-4 7.00e-6 1.00e-6 7.80e-7
	200 2 7.80e-7 290 1.98e-4 7.00e-6 1.00e-6 7.80e-7
	201 1 7.80e-7 290 2.00e-6 9.00e-6 1.00e-6 7.80e-7
	202 2 7.80e-7 290 6.00e-6 9.00e-6 1.00e-6 7.80e-7
	203 1 7.80e-7 290 1.00e-5 9.00e-6 1.00e-6 7.80e-7
	204 2 7.80e-7 290 1.40e-5 9.00e-6 1.00e-6 7.80e-7
	205 1 7.80e-7 290 1.80e-5 9.00e-6 1.00e-6 7.80e-7
	206 2 7.80e-7 290 2.20e-5 9.00e-6 1.00e-6 7.80e-7
	207 1 7.80e-7 290 2.60e-5 9.00e-6 1.00e-6 7.80e-7
	208 2 7.80e-7 290 3.00e-5 9.00e-6 1.00e-6 7.80e-7
	209 1 7.80e-7 290 3.40e-5 9.00e-6 1.00e-6 7.80e-7
	210 2 7.80e-7 290 3.80e-5 9.00e-6 1.00e-6 7.80e-7
	211 1 7.80e-7 290 4.20e-5 9.00e-6 1.00e-6 7.80e-7
	212 2 7.80e-7 290 4.60e-5 9.00e-6 1.00e-6 7.80e-7
	213 1 7.80e-7 290 5.00e-5 9.00e-6 1.00e-6 7.80e-7
	214 2 7.80e-7 290 5.40e-5 9.00e-6 1.00e-6 7.80e-7
	215 1 7.80e-7 290 5.80e-5 9.00e-6 1.00e-6 7.80e-7
	216 2 7.80e-7 290 6.20e-5 9.00e-6 1.00e-6 7.80e-7
	217 1 7.80e-7 290 6.60e-5 9.00e-6 1.00e-6 7.80e-7
	218 2 7.80e-7 290 7.00e-5 9.00e-6 1.00e-6 7.80e-7
	219 1 7.80e-7 290 7.40e-5 9.00e-6 1.00e-6 7.80e-7
	220 2 7.80e-7 290 7.80e-5 9.00e-6 1.00e-6 7.80e-7
	221 1 7.80e-7 290 8.20e-5 9.00e-6 1.00e-6 7.80e-7
	222 2 7.80e-7 290 8.60e-5 9.00e-6 1.00e-6 7.80e-7
	223 1 7.80e-7 290 9.00e-5 9.00e-6 1.00e-6 7.80e-7
	224 2 7.80e-7 290 9.40e-5 9.00e-6 1.00e-6 7.80e-7
	225 1 7.80e-7 290 9.80e-5 9.00e-6 1.00e-6 7.80e-7
	226 2 7.80e-7 290 1.02e-4 9.00e-6 1.00e-6 7.80e-7
	227 1 7.80e-7 290 1.06e-4 9.00e-6 1.00e-6 7.80e-7
	228 2 7.80e-7 290 1.10e-4 9.00e-6 1.00e-6 7.80e-7
	229 1 7.80e-7 290 1.14e-4 9.00e-6 1.00e-6 7.80e-7
	230 2 7.80e-7 290 1.18e-4 9.00e-6 1.00e-6 7.80e-7
	231 1 7.80e-7 290 1.22e-4 9.00e-6 1.00e-6 7.80e-7
	232 2 7.80e-7 290 1.26e-4 9.00e-6 1.00e-6 7.80e-7
	233 1 7.80e-7 290 1.30e-4 9.00e-6 1.00e-6 7.80e-7
	234 2 7.80e-7 290 1.34e-4 9.00e-6 1.00e-6 7.80e-7
	235 1 7.80e-7 290 1.38e-4 9.00e-6 1.00e-6 7.80e-7
	236 2 7.80e-7 290 1.42e-4 9.00e-6 1.00e-6 7.80e-7
	237 1 7.80e-7 290 1.46e-4 9.00e-6 1.00e-6 7.80e-7
	238 2 7.80e-7 290 1.50e-4 9.00e-6 1.00e-6 7.80e-7
	239 1 7.80e-7 290 1.54e-4 9.00e-6 1.00e-6 7.80e-7
	240 2 7.80e-7 290 1.58e-4 9.00e-6 1.00e-6 7.80e-7
	241 1 7.80e-7 290 1.62e-4 9.00e-6 1.00e-6 7.80e-7
	242 2 7.80e-7 290 1.66e-4 9.00e-6 1.00e-6 7.80e-7
	243 1 7.80e-7 290 1.70e-4 9.00e-6 1.00e-6 7.80e-7
	244 2 7.80e-7 290 1.74e-4 9.00e-6 1.00e-6 7.80e-7
	245 1 7.80e-7 290 1.78e-4 9.00e-6 1.00e-6 7.80e-7
	246 2 7.80e-7 290 1.82e-4 9.00e-6 1.00e-6 7.80e-7
	247 1 7.80e-7 290 1.86e-4 9.00e-6 1.00e-6 7.80e-7
	248 2 7.80e-7 290 1.90e-4 9.00e-6 1.00e-6 7.80e-7
	249 1 7.80e-7 290 1.94e-4 9.00e-6 1.00e-6 7.80e-7
	250 2 7.80e-7 290 1.98e-4 9.00e-6 1.00e-6 7.80e-7


 Nutrients

     1 o2 l 3.13e-5 3.13e-5 3.13e-5 3.13e-5 3.13e-5 3.13e-5 3.13e-5
     2 h2o l 1 1 1 1 1 1 1
     3 h l 0 0 0 0 0 0 0

 Type Name

     1 hetr
     2 hety

 Diffusion Coeffs
     
     o2 2e-9
     h2o 0
     h 0 

 Ks
     
     hety 9.38e-6 0 0
     hetr 1.88e-5 0 0

 Consumption Rate

     hety 0.000381111
     hetr 0.001524167

 Yield
    
     hety 0.0598373984
     hetr 0.0299186992

 Maintenance
 
     hety 0
     hetr 0

 Electron Donor
    
     hety o2
     hetr o2

 Decay

     hety 0
     hetr 0

 Catabolism Coeffs
         
     hety -1 0 0
     hetr -1 0 0

 Anabolism Coeffs
          
     hety 0 0 0
     hetr 0 0 0
 
 Decay Coeffs
           
     hety 0 0 0
     hetr 0 0 0
 
 Nutrient Energy

    o2 inf 16.4 inf inf inf 2
    h2o inf -237.18 -157.3 inf inf 2
    h inf 0 inf inf inf 2

 Type Energy

     hety inf -68 inf inf inf 2 
     hetr inf -67 inf inf inf 2

 Nutrient Charge
  
    o2 na 0 na na na
    h2o na 0 -1 na na
    h na 1 na na na
                            
 Dissipation

     hety 0
     hetr 0


