LAMMPS (5 Nov 2016)
# NUFEB simulation



atom_style	bio

atom_modify	map array sort 1000 5e-7

boundary	pp pp pp

newton		off

processors  * * 1



units si



comm_modify	vel yes

read_data_bio atom.in

  orthogonal box = (0 0 0) to (0.0016 3e-05 0.00038)
  1 by 1 by 1 MPI processor grid
  reading atoms ...
  0 atoms
  5 nutrients


group HET type 1

0 atoms in group HET


variable  x equal 177

variable  y equal 3

variable  z equal 7



lattice sc 9e-6 origin 0.5 0.5 0.5

Lattice spacing in x,y,z = 9e-06 9e-06 9e-06


region reg block 0 $x 0 $y 0 $z

region reg block 0 177 0 $y 0 $z

region reg block 0 177 0 3 0 $z

region reg block 0 177 0 3 0 7



variable  xx internal 0.0

variable  zz internal 0.0

variable  v equal "(0.29*v_z*zlat * cos(v_xx/xlat * 4.7*PI*4.0/v_x) + 0.90*v_z*zlat - v_zz) > 0.0"



#create_atoms 1 region reg var v set x xx set z zz

create_atoms 1 region reg

Created 3717 atoms


neighbor	5e-7 bin



set type 1 density 28.9

  3717 settings made for density
set type 1 diameter 9e-6

  3717 settings made for diameter
set type 1 mass 0.847458e-14

  3717 settings made for mass


##############Define DEM Variables&Commands##############



pair_style  gran/hooke/history 1.e-4 NULL 1.e-5 NULL 0.0 1

pair_coeff  * *



reset_timestep 0



timestep 1e-7



#fix 1 all nve/limit 1e-7

#fix fv all viscous 1e-5



#fix zw all wall/gran hooke/history 5000 NULL 500.0 NULL 1.5 0 zplane 0.000000e-04   4e-4



variable kanc equal 50



#fix zwa all walladh v_kanc zplane  0.000000e-04   4e-4



variable ke equal 5e+10



variable pfx equal 0.0

variable pfy equal 0.0

variable pfz equal 0.0



fix 3 all fdrag v_pfx v_pfy v_pfz



##############Define IBm Variables##############



#variables used in fix monod

variable EPSdens equal 30

variable EPSratio equal 1.25



#variables used in fix kinetics 

variable diffT equal 1e-4

variable tol equal 5e-7

variable etaHET equal 0

variable layer equal -1



#Defining nufebFoam variables

variable demSteps equal 1

variable bioSteps equal 1

variable bioDt equal 60

variable nloops equal 30



##############Define IBm Commands##############



fix k1 all kinetics 1 160 3 38 v_diffT v_layer niter -1

fix kgm all kinetics/growth/monod v_EPSdens v_etaHET gflag 0

fix g1 all kinetics/diffusion v_tol dn nn nn kg



fix cfd1 all nufebFoam v_demSteps v_bioSteps v_bioDt v_nloops

fix vf1 all verify 1 bm2 1 demflag 0



##############Simulation Output##############



#dump		id all custom 1 snapshot.bubblemd id type diameter x y z

#dump		du2 all grid 1000 grid_%_*.vti con 

thermo_style    custom step cpu atoms biomass 

thermo		10

thermo_modify	lost warn



run 0 pre no post no
WARNING: EPS is not defined in fix_kinetics/kinetics/monod (../fix_bio_kinetics_monod.cpp:253)
ae = 1.000000e+00, top = 6.300000e-05, base = 6.300000e-05, ave_h = 5.850000e-05 
Neighbor list info ...
  2 neighbor list requests
  update every 1 steps, delay 10 steps, check yes
  max neighbors/atom: 2000, page size: 100000
  master list distance cutoff = 9.5e-06
  ghost atom cutoff = 9.5e-06
  binsize = 4.75e-06 -> bins = 337 7 80
Memory usage per processor = 9.27126 Mbytes
Step CPU Atoms biomass 
       0            0     3717 3.1500014e-11 
Loop time of 2.14577e-06 on 1 procs for 0 steps with 3717 atoms

139.8% CPU use with 1 MPI tasks x no OpenMP threads
run 1 pre no post no
Step CPU Atoms biomass 
       0            0     3717 3.1500014e-11 
number of iterations: 3698747 
ssurf = 5.491231e-04 
ssurf2 = 5.806404e-04 
ssurf3 = 6.102446e-04 
       1    4806.0252     3717 3.1500014e-11 
Loop time of 4806.03 on 1 procs for 1 steps with 3717 atoms

99.8% CPU use with 1 MPI tasks x no OpenMP threads
run 1 pre no post no
Step CPU Atoms biomass 
       1            0     3717 3.1500014e-11 
ssurf = 5.491231e-04 
ssurf2 = 5.806404e-04 
ssurf3 = 6.102446e-04 
       2 0.00054907799     3717 3.1500014e-11 
Loop time of 0.000556946 on 1 procs for 1 steps with 3717 atoms

100.2% CPU use with 1 MPI tasks x no OpenMP threads
run 1 pre no post no
Step CPU Atoms biomass 
       2            0     3717 3.1500014e-11 
ssurf = 5.491231e-04 
ssurf2 = 5.806404e-04 
ssurf3 = 6.102446e-04 
       3 0.00052309036     3717 3.1500014e-11 
Loop time of 0.000536203 on 1 procs for 1 steps with 3717 atoms

100.1% CPU use with 1 MPI tasks x no OpenMP threads
run 1 pre no post no
Step CPU Atoms biomass 
       3            0     3717 3.1500014e-11 
ssurf = 5.491231e-04 
ssurf2 = 5.806404e-04 
ssurf3 = 6.102446e-04 
       4 0.00054883957     3717 3.1500014e-11 
Loop time of 0.000556946 on 1 procs for 1 steps with 3717 atoms

100.0% CPU use with 1 MPI tasks x no OpenMP threads
run 1 pre no post no
Step CPU Atoms biomass 
       4            0     3717 3.1500014e-11 
ssurf = 5.491231e-04 
ssurf2 = 5.806404e-04 
ssurf3 = 6.102446e-04 
       5 0.00056505203     3717 3.1500014e-11 
Loop time of 0.000571966 on 1 procs for 1 steps with 3717 atoms

100.2% CPU use with 1 MPI tasks x no OpenMP threads
run 1 pre no post no
Step CPU Atoms biomass 
       5            0     3717 3.1500014e-11 
ssurf = 5.491231e-04 
ssurf2 = 5.806404e-04 
ssurf3 = 6.102446e-04 
       6 0.0005068779     3717 3.1500014e-11 
Loop time of 0.000517845 on 1 procs for 1 steps with 3717 atoms

100.4% CPU use with 1 MPI tasks x no OpenMP threads
run 1 pre no post no
Step CPU Atoms biomass 
       6            0     3717 3.1500014e-11 
ssurf = 5.491231e-04 
ssurf2 = 5.806404e-04 
ssurf3 = 6.102446e-04 
       7 0.00060391426     3717 3.1500014e-11 
Loop time of 0.000611782 on 1 procs for 1 steps with 3717 atoms

100.2% CPU use with 1 MPI tasks x no OpenMP threads
run 1 pre no post no
Step CPU Atoms biomass 
       7            0     3717 3.1500014e-11 
ssurf = 5.491231e-04 
ssurf2 = 5.806404e-04 
ssurf3 = 6.102446e-04 
       8 0.00051307678     3717 3.1500014e-11 
Loop time of 0.000519991 on 1 procs for 1 steps with 3717 atoms

100.2% CPU use with 1 MPI tasks x no OpenMP threads
run 1 pre no post no
Step CPU Atoms biomass 
       8            0     3717 3.1500014e-11 
ssurf = 5.491231e-04 
ssurf2 = 5.806404e-04 
ssurf3 = 6.102446e-04 
       9 0.00053811073     3717 3.1500014e-11 
Loop time of 0.000545979 on 1 procs for 1 steps with 3717 atoms

100.4% CPU use with 1 MPI tasks x no OpenMP threads
run 1 pre no post no
Step CPU Atoms biomass 
       9            0     3717 3.1500014e-11 
ssurf = 5.491231e-04 
ssurf2 = 5.806404e-04 
ssurf3 = 6.102446e-04 
      10 0.00053310394     3717 3.1500014e-11 
Loop time of 0.000540018 on 1 procs for 1 steps with 3717 atoms

100.4% CPU use with 1 MPI tasks x no OpenMP threads
run 1 pre no post no
Step CPU Atoms biomass 
      10            0     3717 3.1500014e-11 
ssurf = 5.491231e-04 
ssurf2 = 5.806404e-04 
ssurf3 = 6.102446e-04 
      11 0.0006210804     3717 3.1500014e-11 
Loop time of 0.000631094 on 1 procs for 1 steps with 3717 atoms

100.1% CPU use with 1 MPI tasks x no OpenMP threads
run 1 pre no post no
Step CPU Atoms biomass 
      11            0     3717 3.1500014e-11 
ssurf = 5.491231e-04 
ssurf2 = 5.806404e-04 
ssurf3 = 6.102446e-04 
      12 0.00053191185     3717 3.1500014e-11 
Loop time of 0.000540018 on 1 procs for 1 steps with 3717 atoms

100.2% CPU use with 1 MPI tasks x no OpenMP threads
run 1 pre no post no
Step CPU Atoms biomass 
      12            0     3717 3.1500014e-11 
ssurf = 5.491231e-04 
ssurf2 = 5.806404e-04 
ssurf3 = 6.102446e-04 
      13 0.00054097176     3717 3.1500014e-11 
Loop time of 0.000551939 on 1 procs for 1 steps with 3717 atoms

100.0% CPU use with 1 MPI tasks x no OpenMP threads
run 1 pre no post no
Step CPU Atoms biomass 
      13            0     3717 3.1500014e-11 
ssurf = 5.491231e-04 
ssurf2 = 5.806404e-04 
ssurf3 = 6.102446e-04 
      14 0.00061011314     3717 3.1500014e-11 
Loop time of 0.000622034 on 1 procs for 1 steps with 3717 atoms

100.2% CPU use with 1 MPI tasks x no OpenMP threads
run 1 pre no post no
Step CPU Atoms biomass 
      14            0     3717 3.1500014e-11 
ssurf = 5.491231e-04 
ssurf2 = 5.806404e-04 
ssurf3 = 6.102446e-04 
      15 0.00070405006     3717 3.1500014e-11 
Loop time of 0.00071311 on 1 procs for 1 steps with 3717 atoms

100.0% CPU use with 1 MPI tasks x no OpenMP threads
run 1 pre no post no
Step CPU Atoms biomass 
      15            0     3717 3.1500014e-11 
ssurf = 5.491231e-04 
ssurf2 = 5.806404e-04 
ssurf3 = 6.102446e-04 
      16  0.000633955     3717 3.1500014e-11 
Loop time of 0.000643969 on 1 procs for 1 steps with 3717 atoms

100.2% CPU use with 1 MPI tasks x no OpenMP threads
run 1 pre no post no
Step CPU Atoms biomass 
      16            0     3717 3.1500014e-11 
ssurf = 5.491231e-04 
ssurf2 = 5.806404e-04 
ssurf3 = 6.102446e-04 
      17 0.00053596497     3717 3.1500014e-11 
Loop time of 0.000555038 on 1 procs for 1 steps with 3717 atoms

100.2% CPU use with 1 MPI tasks x no OpenMP threads
run 1 pre no post no
Step CPU Atoms biomass 
      17            0     3717 3.1500014e-11 
ssurf = 5.491231e-04 
ssurf2 = 5.806404e-04 
ssurf3 = 6.102446e-04 
      18 0.00055408478     3717 3.1500014e-11 
Loop time of 0.000561953 on 1 procs for 1 steps with 3717 atoms

100.0% CPU use with 1 MPI tasks x no OpenMP threads
run 1 pre no post no
Step CPU Atoms biomass 
      18            0     3717 3.1500014e-11 
ssurf = 5.491231e-04 
ssurf2 = 5.806404e-04 
ssurf3 = 6.102446e-04 
      19 0.00057792664     3717 3.1500014e-11 
Loop time of 0.000586987 on 1 procs for 1 steps with 3717 atoms

100.2% CPU use with 1 MPI tasks x no OpenMP threads
run 1 pre no post no
Step CPU Atoms biomass 
      19            0     3717 3.1500014e-11 
ssurf = 5.491231e-04 
ssurf2 = 5.806404e-04 
ssurf3 = 6.102446e-04 
      20 0.0006070137     3717 3.1500014e-11 
Loop time of 0.000617027 on 1 procs for 1 steps with 3717 atoms

100.2% CPU use with 1 MPI tasks x no OpenMP threads
run 1 pre no post no
Step CPU Atoms biomass 
      20            0     3717 3.1500014e-11 
ssurf = 5.491231e-04 
ssurf2 = 5.806404e-04 
ssurf3 = 6.102446e-04 
      21 0.00053310394     3717 3.1500014e-11 
Loop time of 0.000544071 on 1 procs for 1 steps with 3717 atoms

100.2% CPU use with 1 MPI tasks x no OpenMP threads
run 1 pre no post no
Step CPU Atoms biomass 
      21            0     3717 3.1500014e-11 
ssurf = 5.491231e-04 
ssurf2 = 5.806404e-04 
ssurf3 = 6.102446e-04 
      22 0.00056481361     3717 3.1500014e-11 
Loop time of 0.000571966 on 1 procs for 1 steps with 3717 atoms

101.8% CPU use with 1 MPI tasks x no OpenMP threads
run 1 pre no post no
Step CPU Atoms biomass 
      22            0     3717 3.1500014e-11 
ssurf = 5.491231e-04 
ssurf2 = 5.806404e-04 
ssurf3 = 6.102446e-04 
      23 0.00053405762     3717 3.1500014e-11 
Loop time of 0.000540972 on 1 procs for 1 steps with 3717 atoms

100.2% CPU use with 1 MPI tasks x no OpenMP threads
run 1 pre no post no
Step CPU Atoms biomass 
      23            0     3717 3.1500014e-11 
ssurf = 5.491231e-04 
ssurf2 = 5.806404e-04 
ssurf3 = 6.102446e-04 
      24 0.00052499771     3717 3.1500014e-11 
Loop time of 0.000531912 on 1 procs for 1 steps with 3717 atoms

100.2% CPU use with 1 MPI tasks x no OpenMP threads
run 1 pre no post no
Step CPU Atoms biomass 
      24            0     3717 3.1500014e-11 
ssurf = 5.491231e-04 
ssurf2 = 5.806404e-04 
ssurf3 = 6.102446e-04 
      25 0.00053596497     3717 3.1500014e-11 
Loop time of 0.000546932 on 1 procs for 1 steps with 3717 atoms

100.2% CPU use with 1 MPI tasks x no OpenMP threads
run 1 pre no post no
Step CPU Atoms biomass 
      25            0     3717 3.1500014e-11 
ssurf = 5.491231e-04 
ssurf2 = 5.806404e-04 
ssurf3 = 6.102446e-04 
      26 0.00054097176     3717 3.1500014e-11 
Loop time of 0.000554085 on 1 procs for 1 steps with 3717 atoms

100.0% CPU use with 1 MPI tasks x no OpenMP threads
run 1 pre no post no
Step CPU Atoms biomass 
      26            0     3717 3.1500014e-11 
ssurf = 5.491231e-04 
ssurf2 = 5.806404e-04 
ssurf3 = 6.102446e-04 
      27 0.00054502487     3717 3.1500014e-11 
Loop time of 0.000552893 on 1 procs for 1 steps with 3717 atoms

101.8% CPU use with 1 MPI tasks x no OpenMP threads
run 1 pre no post no
Step CPU Atoms biomass 
      27            0     3717 3.1500014e-11 
ssurf = 5.491231e-04 
ssurf2 = 5.806404e-04 
ssurf3 = 6.102446e-04 
      28 0.00053405762     3717 3.1500014e-11 
Loop time of 0.000544071 on 1 procs for 1 steps with 3717 atoms

100.2% CPU use with 1 MPI tasks x no OpenMP threads
run 1 pre no post no
Step CPU Atoms biomass 
      28            0     3717 3.1500014e-11 
ssurf = 5.491231e-04 
ssurf2 = 5.806404e-04 
ssurf3 = 6.102446e-04 
      29 0.00053095818     3717 3.1500014e-11 
Loop time of 0.000541925 on 1 procs for 1 steps with 3717 atoms

100.0% CPU use with 1 MPI tasks x no OpenMP threads
run 1 pre no post no
Step CPU Atoms biomass 
      29            0     3717 3.1500014e-11 
ssurf = 5.491231e-04 
ssurf2 = 5.806404e-04 
ssurf3 = 6.102446e-04 
      30 0.00067400932     3717 3.1500014e-11 
Loop time of 0.000687122 on 1 procs for 1 steps with 3717 atoms

100.1% CPU use with 1 MPI tasks x no OpenMP threads
run 1 pre no post no
Step CPU Atoms biomass 
      30            0     3717 3.1500014e-11 
ssurf = 5.491231e-04 
ssurf2 = 5.806404e-04 
ssurf3 = 6.102446e-04 
      31 0.00057196617     3717 3.1500014e-11 
Loop time of 0.00058198 on 1 procs for 1 steps with 3717 atoms

100.2% CPU use with 1 MPI tasks x no OpenMP threads
run 1 pre no post no
Step CPU Atoms biomass 
      31            0     3717 3.1500014e-11 
ssurf = 5.491231e-04 
ssurf2 = 5.806404e-04 
ssurf3 = 6.102446e-04 
      32 0.00057291985     3717 3.1500014e-11 
Loop time of 0.000581026 on 1 procs for 1 steps with 3717 atoms

100.3% CPU use with 1 MPI tasks x no OpenMP threads
run 1 pre no post no
Step CPU Atoms biomass 
      32            0     3717 3.1500014e-11 
ssurf = 5.491231e-04 
ssurf2 = 5.806404e-04 
ssurf3 = 6.102446e-04 
      33 0.00054597855     3717 3.1500014e-11 
Loop time of 0.000552893 on 1 procs for 1 steps with 3717 atoms

100.2% CPU use with 1 MPI tasks x no OpenMP threads
run 1 pre no post no
Step CPU Atoms biomass 
      33            0     3717 3.1500014e-11 
ssurf = 5.491231e-04 
ssurf2 = 5.806404e-04 
ssurf3 = 6.102446e-04 
      34 0.00052309036     3717 3.1500014e-11 
Loop time of 0.000530005 on 1 procs for 1 steps with 3717 atoms

100.4% CPU use with 1 MPI tasks x no OpenMP threads
run 1 pre no post no
Step CPU Atoms biomass 
      34            0     3717 3.1500014e-11 
ssurf = 5.491231e-04 
ssurf2 = 5.806404e-04 
ssurf3 = 6.102446e-04 
      35 0.00053691864     3717 3.1500014e-11 
Loop time of 0.000550032 on 1 procs for 1 steps with 3717 atoms

100.2% CPU use with 1 MPI tasks x no OpenMP threads
run 1 pre no post no
Step CPU Atoms biomass 
      35            0     3717 3.1500014e-11 
ssurf = 5.491231e-04 
ssurf2 = 5.806404e-04 
ssurf3 = 6.102446e-04 
      36 0.00053501129     3717 3.1500014e-11 
Loop time of 0.000547171 on 1 procs for 1 steps with 3717 atoms

100.3% CPU use with 1 MPI tasks x no OpenMP threads
run 1 pre no post no
Step CPU Atoms biomass 
      36            0     3717 3.1500014e-11 
ssurf = 5.491231e-04 
ssurf2 = 5.806404e-04 
ssurf3 = 6.102446e-04 
      37 0.0005569458     3717 3.1500014e-11 
Loop time of 0.000571966 on 1 procs for 1 steps with 3717 atoms

100.4% CPU use with 1 MPI tasks x no OpenMP threads
run 1 pre no post no
Step CPU Atoms biomass 
      37            0     3717 3.1500014e-11 
ssurf = 5.491231e-04 
ssurf2 = 5.806404e-04 
ssurf3 = 6.102446e-04 
      38 0.0007250309     3717 3.1500014e-11 
Loop time of 0.00074482 on 1 procs for 1 steps with 3717 atoms

100.0% CPU use with 1 MPI tasks x no OpenMP threads
run 1 pre no post no
Step CPU Atoms biomass 
      38            0     3717 3.1500014e-11 
ssurf = 5.491231e-04 
ssurf2 = 5.806404e-04 
ssurf3 = 6.102446e-04 
      39 0.00079607964     3717 3.1500014e-11 
Loop time of 0.000808001 on 1 procs for 1 steps with 3717 atoms

100.1% CPU use with 1 MPI tasks x no OpenMP threads
run 1 pre no post no
Step CPU Atoms biomass 
      39            0     3717 3.1500014e-11 
ssurf = 5.491231e-04 
ssurf2 = 5.806404e-04 
ssurf3 = 6.102446e-04 
      40 0.00088977814     3717 3.1500014e-11 
Loop time of 0.000900984 on 1 procs for 1 steps with 3717 atoms

100.0% CPU use with 1 MPI tasks x no OpenMP threads
run 1 pre no post no
Step CPU Atoms biomass 
      40            0     3717 3.1500014e-11 
ssurf = 5.491231e-04 
ssurf2 = 5.806404e-04 
ssurf3 = 6.102446e-04 
      41 0.00055193901     3717 3.1500014e-11 
Loop time of 0.000559092 on 1 procs for 1 steps with 3717 atoms

100.3% CPU use with 1 MPI tasks x no OpenMP threads
run 1 pre no post no
Step CPU Atoms biomass 
      41            0     3717 3.1500014e-11 
ssurf = 5.491231e-04 
ssurf2 = 5.806404e-04 
ssurf3 = 6.102446e-04 
      42 0.00055098534     3717 3.1500014e-11 
Loop time of 0.000559092 on 1 procs for 1 steps with 3717 atoms

99.8% CPU use with 1 MPI tasks x no OpenMP threads
run 1 pre no post no
Step CPU Atoms biomass 
      42            0     3717 3.1500014e-11 
ssurf = 5.491231e-04 
ssurf2 = 5.806404e-04 
ssurf3 = 6.102446e-04 
      43 0.00054097176     3717 3.1500014e-11 
Loop time of 0.000551939 on 1 procs for 1 steps with 3717 atoms

100.2% CPU use with 1 MPI tasks x no OpenMP threads
run 1 pre no post no
Step CPU Atoms biomass 
      43            0     3717 3.1500014e-11 
ssurf = 5.491231e-04 
ssurf2 = 5.806404e-04 
ssurf3 = 6.102446e-04 
      44 0.00084400177     3717 3.1500014e-11 
Loop time of 0.000855923 on 1 procs for 1 steps with 3717 atoms

100.2% CPU use with 1 MPI tasks x no OpenMP threads
run 1 pre no post no
Step CPU Atoms biomass 
      44            0     3717 3.1500014e-11 
ssurf = 5.491231e-04 
ssurf2 = 5.806404e-04 
ssurf3 = 6.102446e-04 
      45 0.00056004524     3717 3.1500014e-11 
Loop time of 0.000566959 on 1 procs for 1 steps with 3717 atoms

100.2% CPU use with 1 MPI tasks x no OpenMP threads
run 1 pre no post no
Step CPU Atoms biomass 
      45            0     3717 3.1500014e-11 
ssurf = 5.491231e-04 
ssurf2 = 5.806404e-04 
ssurf3 = 6.102446e-04 
      46 0.00052905083     3717 3.1500014e-11 
Loop time of 0.000536919 on 1 procs for 1 steps with 3717 atoms

100.0% CPU use with 1 MPI tasks x no OpenMP threads
run 1 pre no post no
Step CPU Atoms biomass 
      46            0     3717 3.1500014e-11 
ssurf = 5.491231e-04 
ssurf2 = 5.806404e-04 
ssurf3 = 6.102446e-04 
      47 0.00053286552     3717 3.1500014e-11 
Loop time of 0.000542879 on 1 procs for 1 steps with 3717 atoms

100.2% CPU use with 1 MPI tasks x no OpenMP threads
run 1 pre no post no
Step CPU Atoms biomass 
      47            0     3717 3.1500014e-11 
ssurf = 5.491231e-04 
ssurf2 = 5.806404e-04 
ssurf3 = 6.102446e-04 
      48 0.00054502487     3717 3.1500014e-11 
Loop time of 0.000552893 on 1 procs for 1 steps with 3717 atoms

0.0% CPU use with 1 MPI tasks x no OpenMP threads
run 1 pre no post no
Step CPU Atoms biomass 
      48            0     3717 3.1500014e-11 
ssurf = 5.491231e-04 
ssurf2 = 5.806404e-04 
ssurf3 = 6.102446e-04 
      49 0.00052714348     3717 3.1500014e-11 
Loop time of 0.000534058 on 1 procs for 1 steps with 3717 atoms

100.2% CPU use with 1 MPI tasks x no OpenMP threads
run 1 pre no post no
Step CPU Atoms biomass 
      49            0     3717 3.1500014e-11 
ssurf = 5.491231e-04 
ssurf2 = 5.806404e-04 
ssurf3 = 6.102446e-04 
      50 0.00066995621     3717 3.1500014e-11 
Loop time of 0.000679016 on 1 procs for 1 steps with 3717 atoms

100.1% CPU use with 1 MPI tasks x no OpenMP threads
run 1 pre no post no
Step CPU Atoms biomass 
      50            0     3717 3.1500014e-11 
ssurf = 5.491231e-04 
ssurf2 = 5.806404e-04 
ssurf3 = 6.102446e-04 
      51 0.00054693222     3717 3.1500014e-11 
Loop time of 0.000559092 on 1 procs for 1 steps with 3717 atoms

100.2% CPU use with 1 MPI tasks x no OpenMP threads
run 1 pre no post no
Step CPU Atoms biomass 
      51            0     3717 3.1500014e-11 
ssurf = 5.491231e-04 
ssurf2 = 5.806404e-04 
ssurf3 = 6.102446e-04 
      52 0.00052690506     3717 3.1500014e-11 
Loop time of 0.000545979 on 1 procs for 1 steps with 3717 atoms

100.0% CPU use with 1 MPI tasks x no OpenMP threads
run 1 pre no post no
Step CPU Atoms biomass 
      52            0     3717 3.1500014e-11 
ssurf = 5.491231e-04 
ssurf2 = 5.806404e-04 
ssurf3 = 6.102446e-04 
      53 0.00052785873     3717 3.1500014e-11 
Loop time of 0.000545025 on 1 procs for 1 steps with 3717 atoms

100.2% CPU use with 1 MPI tasks x no OpenMP threads
run 1 pre no post no
Step CPU Atoms biomass 
      53            0     3717 3.1500014e-11 
ssurf = 5.491231e-04 
ssurf2 = 5.806404e-04 
ssurf3 = 6.102446e-04 
      54 0.00061702728     3717 3.1500014e-11 
Loop time of 0.000626087 on 1 procs for 1 steps with 3717 atoms

0.0% CPU use with 1 MPI tasks x no OpenMP threads
run 1 pre no post no
Step CPU Atoms biomass 
      54            0     3717 3.1500014e-11 
ssurf = 5.491231e-04 
ssurf2 = 5.806404e-04 
ssurf3 = 6.102446e-04 
      55 0.00055003166     3717 3.1500014e-11 
Loop time of 0.000557899 on 1 procs for 1 steps with 3717 atoms

100.0% CPU use with 1 MPI tasks x no OpenMP threads
run 1 pre no post no
Step CPU Atoms biomass 
      55            0     3717 3.1500014e-11 
ssurf = 5.491231e-04 
ssurf2 = 5.806404e-04 
ssurf3 = 6.102446e-04 
      56 0.00056910515     3717 3.1500014e-11 
Loop time of 0.000577211 on 1 procs for 1 steps with 3717 atoms

100.3% CPU use with 1 MPI tasks x no OpenMP threads
run 1 pre no post no
Step CPU Atoms biomass 
      56            0     3717 3.1500014e-11 
ssurf = 5.491231e-04 
ssurf2 = 5.806404e-04 
ssurf3 = 6.102446e-04 
      57 0.00052690506     3717 3.1500014e-11 
Loop time of 0.000533819 on 1 procs for 1 steps with 3717 atoms

100.2% CPU use with 1 MPI tasks x no OpenMP threads
run 1 pre no post no
Step CPU Atoms biomass 
      57            0     3717 3.1500014e-11 
ssurf = 5.491231e-04 
ssurf2 = 5.806404e-04 
ssurf3 = 6.102446e-04 
      58 0.00055098534     3717 3.1500014e-11 
Loop time of 0.000558138 on 1 procs for 1 steps with 3717 atoms

101.6% CPU use with 1 MPI tasks x no OpenMP threads
run 1 pre no post no
Step CPU Atoms biomass 
      58            0     3717 3.1500014e-11 
ssurf = 5.491231e-04 
ssurf2 = 5.806404e-04 
ssurf3 = 6.102446e-04 
      59 0.00065302849     3717 3.1500014e-11 
Loop time of 0.00066185 on 1 procs for 1 steps with 3717 atoms

100.2% CPU use with 1 MPI tasks x no OpenMP threads
run 1 pre no post no
Step CPU Atoms biomass 
      59            0     3717 3.1500014e-11 
ssurf = 5.491231e-04 
ssurf2 = 5.806404e-04 
ssurf3 = 6.102446e-04 
      60 0.00099396706     3717 3.1500014e-11 
Loop time of 0.00100303 on 1 procs for 1 steps with 3717 atoms

100.2% CPU use with 1 MPI tasks x no OpenMP threads
run 1 pre no post no
Step CPU Atoms biomass 
      60            0     3717 3.1500014e-11 
ssurf = 5.491231e-04 
ssurf2 = 5.806404e-04 
ssurf3 = 6.102446e-04 
      61 0.0006301403     3717 3.1500014e-11 
Loop time of 0.000651121 on 1 procs for 1 steps with 3717 atoms

100.1% CPU use with 1 MPI tasks x no OpenMP threads
run 1 pre no post no
Step CPU Atoms biomass 
      61            0     3717 3.1500014e-11 
ssurf = 5.491231e-04 
ssurf2 = 5.806404e-04 
ssurf3 = 6.102446e-04 
      62 0.00066709518     3717 3.1500014e-11 
Loop time of 0.000677109 on 1 procs for 1 steps with 3717 atoms

100.0% CPU use with 1 MPI tasks x no OpenMP threads
run 1 pre no post no
Step CPU Atoms biomass 
      62            0     3717 3.1500014e-11 
ssurf = 5.491231e-04 
ssurf2 = 5.806404e-04 
ssurf3 = 6.102446e-04 
      63 0.00070095062     3717 3.1500014e-11 
Loop time of 0.000710964 on 1 procs for 1 steps with 3717 atoms

100.1% CPU use with 1 MPI tasks x no OpenMP threads
run 1 pre no post no
Step CPU Atoms biomass 
      63            0     3717 3.1500014e-11 
ssurf = 5.491231e-04 
ssurf2 = 5.806404e-04 
ssurf3 = 6.102446e-04 
      64 0.00067710876     3717 3.1500014e-11 
Loop time of 0.000688076 on 1 procs for 1 steps with 3717 atoms

100.0% CPU use with 1 MPI tasks x no OpenMP threads
run 1 pre no post no
Step CPU Atoms biomass 
      64            0     3717 3.1500014e-11 
ssurf = 5.491231e-04 
ssurf2 = 5.806404e-04 
ssurf3 = 6.102446e-04 
      65 0.00074696541     3717 3.1500014e-11 
Loop time of 0.000760078 on 1 procs for 1 steps with 3717 atoms

101.2% CPU use with 1 MPI tasks x no OpenMP threads
run 1 pre no post no
Step CPU Atoms biomass 
      65            0     3717 3.1500014e-11 
ssurf = 5.491231e-04 
ssurf2 = 5.806404e-04 
ssurf3 = 6.102446e-04 
      66 0.00070309639     3717 3.1500014e-11 
Loop time of 0.000711918 on 1 procs for 1 steps with 3717 atoms

101.3% CPU use with 1 MPI tasks x no OpenMP threads
run 1 pre no post no
Step CPU Atoms biomass 
      66            0     3717 3.1500014e-11 
ssurf = 5.491231e-04 
ssurf2 = 5.806404e-04 
ssurf3 = 6.102446e-04 
      67 0.00055289268     3717 3.1500014e-11 
Loop time of 0.000562906 on 1 procs for 1 steps with 3717 atoms

100.2% CPU use with 1 MPI tasks x no OpenMP threads
run 1 pre no post no
Step CPU Atoms biomass 
      67            0     3717 3.1500014e-11 
ssurf = 5.491231e-04 
ssurf2 = 5.806404e-04 
ssurf3 = 6.102446e-04 
      68 0.00056505203     3717 3.1500014e-11 
Loop time of 0.000573874 on 1 procs for 1 steps with 3717 atoms

100.2% CPU use with 1 MPI tasks x no OpenMP threads
run 1 pre no post no
Step CPU Atoms biomass 
      68            0     3717 3.1500014e-11 
ssurf = 5.491231e-04 
ssurf2 = 5.806404e-04 
ssurf3 = 6.102446e-04 
      69 0.00068116188     3717 3.1500014e-11 
Loop time of 0.000701189 on 1 procs for 1 steps with 3717 atoms

100.0% CPU use with 1 MPI tasks x no OpenMP threads
run 1 pre no post no
Step CPU Atoms biomass 
      69            0     3717 3.1500014e-11 
ssurf = 5.491231e-04 
ssurf2 = 5.806404e-04 
ssurf3 = 6.102446e-04 
      70 0.00066900253     3717 3.1500014e-11 
Loop time of 0.00067687 on 1 procs for 1 steps with 3717 atoms

100.3% CPU use with 1 MPI tasks x no OpenMP threads
run 1 pre no post no
Step CPU Atoms biomass 
      70            0     3717 3.1500014e-11 
ssurf = 5.491231e-04 
ssurf2 = 5.806404e-04 
ssurf3 = 6.102446e-04 
      71 0.00059103966     3717 3.1500014e-11 
Loop time of 0.000597954 on 1 procs for 1 steps with 3717 atoms

100.2% CPU use with 1 MPI tasks x no OpenMP threads
run 1 pre no post no
Step CPU Atoms biomass 
      71            0     3717 3.1500014e-11 
ssurf = 5.491231e-04 
ssurf2 = 5.806404e-04 
ssurf3 = 6.102446e-04 
      72 0.00065207481     3717 3.1500014e-11 
Loop time of 0.000659943 on 1 procs for 1 steps with 3717 atoms

100.2% CPU use with 1 MPI tasks x no OpenMP threads
run 1 pre no post no
Step CPU Atoms biomass 
      72            0     3717 3.1500014e-11 
ssurf = 5.491231e-04 
ssurf2 = 5.806404e-04 
ssurf3 = 6.102446e-04 
      73 0.0006210804     3717 3.1500014e-11 
Loop time of 0.000638962 on 1 procs for 1 steps with 3717 atoms

100.2% CPU use with 1 MPI tasks x no OpenMP threads
run 1 pre no post no
Step CPU Atoms biomass 
      73            0     3717 3.1500014e-11 
ssurf = 5.491231e-04 
ssurf2 = 5.806404e-04 
ssurf3 = 6.102446e-04 
      74 0.00061106682     3717 3.1500014e-11 
Loop time of 0.000620127 on 1 procs for 1 steps with 3717 atoms

101.4% CPU use with 1 MPI tasks x no OpenMP threads
run 1 pre no post no
Step CPU Atoms biomass 
      74            0     3717 3.1500014e-11 
ssurf = 5.491231e-04 
ssurf2 = 5.806404e-04 
ssurf3 = 6.102446e-04 
      75  0.000852108     3717 3.1500014e-11 
Loop time of 0.000866175 on 1 procs for 1 steps with 3717 atoms

100.1% CPU use with 1 MPI tasks x no OpenMP threads
run 1 pre no post no
Step CPU Atoms biomass 
      75            0     3717 3.1500014e-11 
ssurf = 5.491231e-04 
ssurf2 = 5.806404e-04 
ssurf3 = 6.102446e-04 
      76 0.00056385994     3717 3.1500014e-11 
Loop time of 0.000575781 on 1 procs for 1 steps with 3717 atoms

100.0% CPU use with 1 MPI tasks x no OpenMP threads
run 1 pre no post no
Step CPU Atoms biomass 
      76            0     3717 3.1500014e-11 
ssurf = 5.491231e-04 
ssurf2 = 5.806404e-04 
ssurf3 = 6.102446e-04 
      77 0.00051999092     3717 3.1500014e-11 
Loop time of 0.000526905 on 1 procs for 1 steps with 3717 atoms

100.4% CPU use with 1 MPI tasks x no OpenMP threads
run 1 pre no post no
Step CPU Atoms biomass 
      77            0     3717 3.1500014e-11 
ssurf = 5.491231e-04 
ssurf2 = 5.806404e-04 
ssurf3 = 6.102446e-04 
      78 0.00071001053     3717 3.1500014e-11 
Loop time of 0.000718832 on 1 procs for 1 steps with 3717 atoms

99.9% CPU use with 1 MPI tasks x no OpenMP threads
run 1 pre no post no
Step CPU Atoms biomass 
      78            0     3717 3.1500014e-11 
ssurf = 5.491231e-04 
ssurf2 = 5.806404e-04 
ssurf3 = 6.102446e-04 
      79 0.00053405762     3717 3.1500014e-11 
Loop time of 0.000540972 on 1 procs for 1 steps with 3717 atoms

100.0% CPU use with 1 MPI tasks x no OpenMP threads
run 1 pre no post no
Step CPU Atoms biomass 
      79            0     3717 3.1500014e-11 
ssurf = 5.491231e-04 
ssurf2 = 5.806404e-04 
ssurf3 = 6.102446e-04 
      80 0.00053787231     3717 3.1500014e-11 
Loop time of 0.000549793 on 1 procs for 1 steps with 3717 atoms

100.4% CPU use with 1 MPI tasks x no OpenMP threads
run 1 pre no post no
Step CPU Atoms biomass 
      80            0     3717 3.1500014e-11 
ssurf = 5.491231e-04 
ssurf2 = 5.806404e-04 
ssurf3 = 6.102446e-04 
      81 0.00072216988     3717 3.1500014e-11 
Loop time of 0.000733137 on 1 procs for 1 steps with 3717 atoms

100.1% CPU use with 1 MPI tasks x no OpenMP threads
run 1 pre no post no
Step CPU Atoms biomass 
      81            0     3717 3.1500014e-11 
ssurf = 5.491231e-04 
ssurf2 = 5.806404e-04 
ssurf3 = 6.102446e-04 
      82 0.00060796738     3717 3.1500014e-11 
Loop time of 0.000619888 on 1 procs for 1 steps with 3717 atoms

100.0% CPU use with 1 MPI tasks x no OpenMP threads
run 1 pre no post no
Step CPU Atoms biomass 
      82            0     3717 3.1500014e-11 
ssurf = 5.491231e-04 
ssurf2 = 5.806404e-04 
ssurf3 = 6.102446e-04 
      83 0.00053715706     3717 3.1500014e-11 
Loop time of 0.000545979 on 1 procs for 1 steps with 3717 atoms

100.2% CPU use with 1 MPI tasks x no OpenMP threads
run 1 pre no post no
Step CPU Atoms biomass 
      83            0     3717 3.1500014e-11 
ssurf = 5.491231e-04 
ssurf2 = 5.806404e-04 
ssurf3 = 6.102446e-04 
      84 0.00053501129     3717 3.1500014e-11 
Loop time of 0.000541925 on 1 procs for 1 steps with 3717 atoms

100.0% CPU use with 1 MPI tasks x no OpenMP threads
run 1 pre no post no
Step CPU Atoms biomass 
      84            0     3717 3.1500014e-11 
ssurf = 5.491231e-04 
ssurf2 = 5.806404e-04 
ssurf3 = 6.102446e-04 
      85 0.00067591667     3717 3.1500014e-11 
Loop time of 0.00068593 on 1 procs for 1 steps with 3717 atoms

100.2% CPU use with 1 MPI tasks x no OpenMP threads
run 1 pre no post no
Step CPU Atoms biomass 
      85            0     3717 3.1500014e-11 
ssurf = 5.491231e-04 
ssurf2 = 5.806404e-04 
ssurf3 = 6.102446e-04 
      86 0.00058317184     3717 3.1500014e-11 
Loop time of 0.000593185 on 1 procs for 1 steps with 3717 atoms

100.3% CPU use with 1 MPI tasks x no OpenMP threads
run 1 pre no post no
Step CPU Atoms biomass 
      86            0     3717 3.1500014e-11 
ssurf = 5.491231e-04 
ssurf2 = 5.806404e-04 
ssurf3 = 6.102446e-04 
      87 0.0006108284     3717 3.1500014e-11 
Loop time of 0.000622034 on 1 procs for 1 steps with 3717 atoms

100.0% CPU use with 1 MPI tasks x no OpenMP threads
run 1 pre no post no
Step CPU Atoms biomass 
      87            0     3717 3.1500014e-11 
ssurf = 5.491231e-04 
ssurf2 = 5.806404e-04 
ssurf3 = 6.102446e-04 
      88 0.00061392784     3717 3.1500014e-11 
Loop time of 0.000622034 on 1 procs for 1 steps with 3717 atoms

100.3% CPU use with 1 MPI tasks x no OpenMP threads
run 1 pre no post no
Step CPU Atoms biomass 
      88            0     3717 3.1500014e-11 
ssurf = 5.491231e-04 
ssurf2 = 5.806404e-04 
ssurf3 = 6.102446e-04 
      89 0.00056099892     3717 3.1500014e-11 
Loop time of 0.000569105 on 1 procs for 1 steps with 3717 atoms

100.2% CPU use with 1 MPI tasks x no OpenMP threads
run 1 pre no post no
Step CPU Atoms biomass 
      89            0     3717 3.1500014e-11 
ssurf = 5.491231e-04 
ssurf2 = 5.806404e-04 
ssurf3 = 6.102446e-04 
      90 0.00054001808     3717 3.1500014e-11 
Loop time of 0.000547171 on 1 procs for 1 steps with 3717 atoms

101.8% CPU use with 1 MPI tasks x no OpenMP threads
run 1 pre no post no
Step CPU Atoms biomass 
      90            0     3717 3.1500014e-11 
ssurf = 5.491231e-04 
ssurf2 = 5.806404e-04 
ssurf3 = 6.102446e-04 
      91 0.00053095818     3717 3.1500014e-11 
Loop time of 0.000539064 on 1 procs for 1 steps with 3717 atoms

100.2% CPU use with 1 MPI tasks x no OpenMP threads
run 1 pre no post no
Step CPU Atoms biomass 
      91            0     3717 3.1500014e-11 
ssurf = 5.491231e-04 
ssurf2 = 5.806404e-04 
ssurf3 = 6.102446e-04 
      92 0.00051498413     3717 3.1500014e-11 
Loop time of 0.000522137 on 1 procs for 1 steps with 3717 atoms

100.0% CPU use with 1 MPI tasks x no OpenMP threads
run 1 pre no post no
Step CPU Atoms biomass 
      92            0     3717 3.1500014e-11 
ssurf = 5.491231e-04 
ssurf2 = 5.806404e-04 
ssurf3 = 6.102446e-04 
      93 0.00053691864     3717 3.1500014e-11 
Loop time of 0.000545025 on 1 procs for 1 steps with 3717 atoms

100.2% CPU use with 1 MPI tasks x no OpenMP threads
run 1 pre no post no
Step CPU Atoms biomass 
      93            0     3717 3.1500014e-11 
ssurf = 5.491231e-04 
ssurf2 = 5.806404e-04 
ssurf3 = 6.102446e-04 
      94 0.00053977966     3717 3.1500014e-11 
Loop time of 0.000546932 on 1 procs for 1 steps with 3717 atoms

100.0% CPU use with 1 MPI tasks x no OpenMP threads
run 1 pre no post no
Step CPU Atoms biomass 
      94            0     3717 3.1500014e-11 
ssurf = 5.491231e-04 
ssurf2 = 5.806404e-04 
ssurf3 = 6.102446e-04 
      95 0.00052595139     3717 3.1500014e-11 
Loop time of 0.000533104 on 1 procs for 1 steps with 3717 atoms

100.2% CPU use with 1 MPI tasks x no OpenMP threads
run 1 pre no post no
Step CPU Atoms biomass 
      95            0     3717 3.1500014e-11 
ssurf = 5.491231e-04 
ssurf2 = 5.806404e-04 
ssurf3 = 6.102446e-04 
      96 0.00056791306     3717 3.1500014e-11 
Loop time of 0.00057888 on 1 procs for 1 steps with 3717 atoms

100.0% CPU use with 1 MPI tasks x no OpenMP threads
run 1 pre no post no
Step CPU Atoms biomass 
      96            0     3717 3.1500014e-11 
ssurf = 5.491231e-04 
ssurf2 = 5.806404e-04 
ssurf3 = 6.102446e-04 
      97 0.00052905083     3717 3.1500014e-11 
Loop time of 0.000537157 on 1 procs for 1 steps with 3717 atoms

100.0% CPU use with 1 MPI tasks x no OpenMP threads
run 1 pre no post no
Step CPU Atoms biomass 
      97            0     3717 3.1500014e-11 
ssurf = 5.491231e-04 
ssurf2 = 5.806404e-04 
ssurf3 = 6.102446e-04 
      98 0.00065207481     3717 3.1500014e-11 
Loop time of 0.000664949 on 1 procs for 1 steps with 3717 atoms

100.2% CPU use with 1 MPI tasks x no OpenMP threads
run 1 pre no post no
Step CPU Atoms biomass 
      98            0     3717 3.1500014e-11 
ssurf = 5.491231e-04 
ssurf2 = 5.806404e-04 
ssurf3 = 6.102446e-04 
      99 0.0005800724     3717 3.1500014e-11 
Loop time of 0.00059104 on 1 procs for 1 steps with 3717 atoms

99.8% CPU use with 1 MPI tasks x no OpenMP threads
run 1 pre no post no
Step CPU Atoms biomass 
      99            0     3717 3.1500014e-11 
ssurf = 5.491231e-04 
ssurf2 = 5.806404e-04 
ssurf3 = 6.102446e-04 
     100 0.0011909008     3717 3.1500014e-11 
Loop time of 0.00120902 on 1 procs for 1 steps with 3717 atoms

100.0% CPU use with 1 MPI tasks x no OpenMP threads
run 1 pre no post no
Step CPU Atoms biomass 
     100            0     3717 3.1500014e-11 
ssurf = 5.491231e-04 
ssurf2 = 5.806404e-04 
ssurf3 = 6.102446e-04 
     101 0.00062608719     3717 3.1500014e-11 
Loop time of 0.000644922 on 1 procs for 1 steps with 3717 atoms

100.0% CPU use with 1 MPI tasks x no OpenMP threads
run 1 pre no post no
Step CPU Atoms biomass 
     101            0     3717 3.1500014e-11 
number of iterations: 373067 
ssurf = 2.307468e-03 
ssurf2 = 2.486077e-03 
ssurf3 = 2.661515e-03 
     102     512.1204     3717 3.1500014e-11 
Loop time of 512.12 on 1 procs for 1 steps with 3717 atoms

99.8% CPU use with 1 MPI tasks x no OpenMP threads
run 1 pre no post no
Step CPU Atoms biomass 
     102            0     3717 3.1500014e-11 
ssurf = 2.307468e-03 
ssurf2 = 2.486077e-03 
ssurf3 = 2.661515e-03 
     103 0.00087499619     3717 3.1500014e-11 
Loop time of 0.000886917 on 1 procs for 1 steps with 3717 atoms

100.1% CPU use with 1 MPI tasks x no OpenMP threads
run 1 pre no post no
Step CPU Atoms biomass 
     103            0     3717 3.1500014e-11 
ssurf = 2.307468e-03 
ssurf2 = 2.486077e-03 
ssurf3 = 2.661515e-03 
     104 0.00072216988     3717 3.1500014e-11 
Loop time of 0.000734091 on 1 procs for 1 steps with 3717 atoms

100.1% CPU use with 1 MPI tasks x no OpenMP threads
run 1 pre no post no
Step CPU Atoms biomass 
     104            0     3717 3.1500014e-11 
ssurf = 2.307468e-03 
ssurf2 = 2.486077e-03 
ssurf3 = 2.661515e-03 
     105 0.00056004524     3717 3.1500014e-11 
Loop time of 0.000569105 on 1 procs for 1 steps with 3717 atoms

100.2% CPU use with 1 MPI tasks x no OpenMP threads
run 1 pre no post no
Step CPU Atoms biomass 
     105            0     3717 3.1500014e-11 
ssurf = 2.307468e-03 
ssurf2 = 2.486077e-03 
ssurf3 = 2.661515e-03 
     106 0.00052690506     3717 3.1500014e-11 
Loop time of 0.000536919 on 1 procs for 1 steps with 3717 atoms

100.4% CPU use with 1 MPI tasks x no OpenMP threads
run 1 pre no post no
Step CPU Atoms biomass 
     106            0     3717 3.1500014e-11 
ssurf = 2.307468e-03 
ssurf2 = 2.486077e-03 
ssurf3 = 2.661515e-03 
     107 0.00054097176     3717 3.1500014e-11 
Loop time of 0.000547886 on 1 procs for 1 steps with 3717 atoms

100.4% CPU use with 1 MPI tasks x no OpenMP threads
run 1 pre no post no
Step CPU Atoms biomass 
     107            0     3717 3.1500014e-11 
ssurf = 2.307468e-03 
ssurf2 = 2.486077e-03 
ssurf3 = 2.661515e-03 
     108 0.00060486794     3717 3.1500014e-11 
Loop time of 0.000613928 on 1 procs for 1 steps with 3717 atoms

100.2% CPU use with 1 MPI tasks x no OpenMP threads
run 1 pre no post no
Step CPU Atoms biomass 
     108            0     3717 3.1500014e-11 
ssurf = 2.307468e-03 
ssurf2 = 2.486077e-03 
ssurf3 = 2.661515e-03 
     109 0.00052404404     3717 3.1500014e-11 
Loop time of 0.000530958 on 1 procs for 1 steps with 3717 atoms

100.4% CPU use with 1 MPI tasks x no OpenMP threads
run 1 pre no post no
Step CPU Atoms biomass 
     109            0     3717 3.1500014e-11 
ssurf = 2.307468e-03 
ssurf2 = 2.486077e-03 
ssurf3 = 2.661515e-03 
     110 0.00058603287     3717 3.1500014e-11 
Loop time of 0.000597 on 1 procs for 1 steps with 3717 atoms

100.2% CPU use with 1 MPI tasks x no OpenMP threads
run 1 pre no post no
Step CPU Atoms biomass 
     110            0     3717 3.1500014e-11 
ssurf = 2.307468e-03 
ssurf2 = 2.486077e-03 
ssurf3 = 2.661515e-03 
     111 0.00055599213     3717 3.1500014e-11 
Loop time of 0.000564098 on 1 procs for 1 steps with 3717 atoms

100.0% CPU use with 1 MPI tasks x no OpenMP threads
run 1 pre no post no
Step CPU Atoms biomass 
     111            0     3717 3.1500014e-11 
ssurf = 2.307468e-03 
ssurf2 = 2.486077e-03 
ssurf3 = 2.661515e-03 
     112 0.00056600571     3717 3.1500014e-11 
Loop time of 0.00057292 on 1 procs for 1 steps with 3717 atoms

100.2% CPU use with 1 MPI tasks x no OpenMP threads
run 1 pre no post no
Step CPU Atoms biomass 
     112            0     3717 3.1500014e-11 
ssurf = 2.307468e-03 
ssurf2 = 2.486077e-03 
ssurf3 = 2.661515e-03 
     113 0.00053095818     3717 3.1500014e-11 
Loop time of 0.000541925 on 1 procs for 1 steps with 3717 atoms

100.0% CPU use with 1 MPI tasks x no OpenMP threads
run 1 pre no post no
Step CPU Atoms biomass 
     113            0     3717 3.1500014e-11 
ssurf = 2.307468e-03 
ssurf2 = 2.486077e-03 
ssurf3 = 2.661515e-03 
     114 0.00053405762     3717 3.1500014e-11 
Loop time of 0.000544071 on 1 procs for 1 steps with 3717 atoms

102.0% CPU use with 1 MPI tasks x no OpenMP threads
run 1 pre no post no
Step CPU Atoms biomass 
     114            0     3717 3.1500014e-11 
ssurf = 2.307468e-03 
ssurf2 = 2.486077e-03 
ssurf3 = 2.661515e-03 
     115 0.00056505203     3717 3.1500014e-11 
Loop time of 0.000583172 on 1 procs for 1 steps with 3717 atoms

100.3% CPU use with 1 MPI tasks x no OpenMP threads
run 1 pre no post no
Step CPU Atoms biomass 
     115            0     3717 3.1500014e-11 
ssurf = 2.307468e-03 
ssurf2 = 2.486077e-03 
ssurf3 = 2.661515e-03 
     116 0.00060105324     3717 3.1500014e-11 
Loop time of 0.000610828 on 1 procs for 1 steps with 3717 atoms

100.0% CPU use with 1 MPI tasks x no OpenMP threads
run 1 pre no post no
Step CPU Atoms biomass 
     116            0     3717 3.1500014e-11 
ssurf = 2.307468e-03 
ssurf2 = 2.486077e-03 
ssurf3 = 2.661515e-03 
     117 0.00058698654     3717 3.1500014e-11 
Loop time of 0.000596046 on 1 procs for 1 steps with 3717 atoms

100.3% CPU use with 1 MPI tasks x no OpenMP threads
run 1 pre no post no
Step CPU Atoms biomass 
     117            0     3717 3.1500014e-11 
ssurf = 2.307468e-03 
ssurf2 = 2.486077e-03 
ssurf3 = 2.661515e-03 
     118 0.00056791306     3717 3.1500014e-11 
Loop time of 0.000577927 on 1 procs for 1 steps with 3717 atoms

100.2% CPU use with 1 MPI tasks x no OpenMP threads
run 1 pre no post no
Step CPU Atoms biomass 
     118            0     3717 3.1500014e-11 
ssurf = 2.307468e-03 
ssurf2 = 2.486077e-03 
ssurf3 = 2.661515e-03 
     119 0.00051999092     3717 3.1500014e-11 
Loop time of 0.000526905 on 1 procs for 1 steps with 3717 atoms

100.2% CPU use with 1 MPI tasks x no OpenMP threads
run 1 pre no post no
Step CPU Atoms biomass 
     119            0     3717 3.1500014e-11 
ssurf = 2.307468e-03 
ssurf2 = 2.486077e-03 
ssurf3 = 2.661515e-03 
     120 0.00073814392     3717 3.1500014e-11 
Loop time of 0.000748158 on 1 procs for 1 steps with 3717 atoms

100.0% CPU use with 1 MPI tasks x no OpenMP threads
run 1 pre no post no
Step CPU Atoms biomass 
     120            0     3717 3.1500014e-11 
ssurf = 2.307468e-03 
ssurf2 = 2.486077e-03 
ssurf3 = 2.661515e-03 
     121 0.00087714195     3717 3.1500014e-11 
Loop time of 0.000887156 on 1 procs for 1 steps with 3717 atoms

100.2% CPU use with 1 MPI tasks x no OpenMP threads
run 1 pre no post no
Step CPU Atoms biomass 
     121            0     3717 3.1500014e-11 
ssurf = 2.307468e-03 
ssurf2 = 2.486077e-03 
ssurf3 = 2.661515e-03 
     122 0.00056409836     3717 3.1500014e-11 
Loop time of 0.000575066 on 1 procs for 1 steps with 3717 atoms

100.2% CPU use with 1 MPI tasks x no OpenMP threads
run 1 pre no post no
Step CPU Atoms biomass 
     122            0     3717 3.1500014e-11 
ssurf = 2.307468e-03 
ssurf2 = 2.486077e-03 
ssurf3 = 2.661515e-03 
     123 0.00053405762     3717 3.1500014e-11 
Loop time of 0.000543118 on 1 procs for 1 steps with 3717 atoms

100.3% CPU use with 1 MPI tasks x no OpenMP threads
run 1 pre no post no
Step CPU Atoms biomass 
     123            0     3717 3.1500014e-11 
ssurf = 2.307468e-03 
ssurf2 = 2.486077e-03 
ssurf3 = 2.661515e-03 
     124 0.00053405762     3717 3.1500014e-11 
Loop time of 0.000542164 on 1 procs for 1 steps with 3717 atoms

100.2% CPU use with 1 MPI tasks x no OpenMP threads
run 1 pre no post no
Step CPU Atoms biomass 
     124            0     3717 3.1500014e-11 
ssurf = 2.307468e-03 
ssurf2 = 2.486077e-03 
ssurf3 = 2.661515e-03 
     125 0.00076794624     3717 3.1500014e-11 
Loop time of 0.000788927 on 1 procs for 1 steps with 3717 atoms

101.2% CPU use with 1 MPI tasks x no OpenMP threads
run 1 pre no post no
Step CPU Atoms biomass 
     125            0     3717 3.1500014e-11 
ssurf = 2.307468e-03 
ssurf2 = 2.486077e-03 
ssurf3 = 2.661515e-03 
     126 0.00071406364     3717 3.1500014e-11 
Loop time of 0.000724077 on 1 procs for 1 steps with 3717 atoms

100.1% CPU use with 1 MPI tasks x no OpenMP threads
run 1 pre no post no
Step CPU Atoms biomass 
     126            0     3717 3.1500014e-11 
ssurf = 2.307468e-03 
ssurf2 = 2.486077e-03 
ssurf3 = 2.661515e-03 
     127 0.00054907799     3717 3.1500014e-11 
Loop time of 0.000556946 on 1 procs for 1 steps with 3717 atoms

100.2% CPU use with 1 MPI tasks x no OpenMP threads
run 1 pre no post no
Step CPU Atoms biomass 
     127            0     3717 3.1500014e-11 
ssurf = 2.307468e-03 
ssurf2 = 2.486077e-03 
ssurf3 = 2.661515e-03 
     128 0.00078105927     3717 3.1500014e-11 
Loop time of 0.000791073 on 1 procs for 1 steps with 3717 atoms

99.9% CPU use with 1 MPI tasks x no OpenMP threads
run 1 pre no post no
Step CPU Atoms biomass 
     128            0     3717 3.1500014e-11 
ssurf = 2.307468e-03 
ssurf2 = 2.486077e-03 
ssurf3 = 2.661515e-03 
     129 0.00053095818     3717 3.1500014e-11 
Loop time of 0.000540018 on 1 procs for 1 steps with 3717 atoms

100.2% CPU use with 1 MPI tasks x no OpenMP threads
run 1 pre no post no
Step CPU Atoms biomass 
     129            0     3717 3.1500014e-11 
ssurf = 2.307468e-03 
ssurf2 = 2.486077e-03 
ssurf3 = 2.661515e-03 
     130 0.0005440712     3717 3.1500014e-11 
Loop time of 0.000554085 on 1 procs for 1 steps with 3717 atoms

100.3% CPU use with 1 MPI tasks x no OpenMP threads
run 1 pre no post no
Step CPU Atoms biomass 
     130            0     3717 3.1500014e-11 
ssurf = 2.307468e-03 
ssurf2 = 2.486077e-03 
ssurf3 = 2.661515e-03 
     131 0.00054788589     3717 3.1500014e-11 
Loop time of 0.000557899 on 1 procs for 1 steps with 3717 atoms

100.0% CPU use with 1 MPI tasks x no OpenMP threads
run 1 pre no post no
Step CPU Atoms biomass 
     131            0     3717 3.1500014e-11 
ssurf = 2.307468e-03 
ssurf2 = 2.486077e-03 
ssurf3 = 2.661515e-03 
     132 0.00064206123     3717 3.1500014e-11 
Loop time of 0.000652075 on 1 procs for 1 steps with 3717 atoms

100.0% CPU use with 1 MPI tasks x no OpenMP threads
run 1 pre no post no
Step CPU Atoms biomass 
     132            0     3717 3.1500014e-11 
ssurf = 2.307468e-03 
ssurf2 = 2.486077e-03 
ssurf3 = 2.661515e-03 
     133 0.00057411194     3717 3.1500014e-11 
Loop time of 0.000582933 on 1 procs for 1 steps with 3717 atoms

100.2% CPU use with 1 MPI tasks x no OpenMP threads
run 1 pre no post no
Step CPU Atoms biomass 
     133            0     3717 3.1500014e-11 
ssurf = 2.307468e-03 
ssurf2 = 2.486077e-03 
ssurf3 = 2.661515e-03 
     134 0.00054192543     3717 3.1500014e-11 
Loop time of 0.000551939 on 1 procs for 1 steps with 3717 atoms

100.4% CPU use with 1 MPI tasks x no OpenMP threads
run 1 pre no post no
Step CPU Atoms biomass 
     134            0     3717 3.1500014e-11 
ssurf = 2.307468e-03 
ssurf2 = 2.486077e-03 
ssurf3 = 2.661515e-03 
     135 0.00063109398     3717 3.1500014e-11 
Loop time of 0.000639915 on 1 procs for 1 steps with 3717 atoms

99.9% CPU use with 1 MPI tasks x no OpenMP threads
run 1 pre no post no
Step CPU Atoms biomass 
     135            0     3717 3.1500014e-11 
ssurf = 2.307468e-03 
ssurf2 = 2.486077e-03 
ssurf3 = 2.661515e-03 
     136 0.00072979927     3717 3.1500014e-11 
Loop time of 0.000738859 on 1 procs for 1 steps with 3717 atoms

100.2% CPU use with 1 MPI tasks x no OpenMP threads
run 1 pre no post no
Step CPU Atoms biomass 
     136            0     3717 3.1500014e-11 
ssurf = 2.307468e-03 
ssurf2 = 2.486077e-03 
ssurf3 = 2.661515e-03 
     137 0.00054502487     3717 3.1500014e-11 
Loop time of 0.000552893 on 1 procs for 1 steps with 3717 atoms

100.2% CPU use with 1 MPI tasks x no OpenMP threads
run 1 pre no post no
Step CPU Atoms biomass 
     137            0     3717 3.1500014e-11 
ssurf = 2.307468e-03 
ssurf2 = 2.486077e-03 
ssurf3 = 2.661515e-03 
     138 0.00058889389     3717 3.1500014e-11 
Loop time of 0.000597 on 1 procs for 1 steps with 3717 atoms

100.0% CPU use with 1 MPI tasks x no OpenMP threads
run 1 pre no post no
Step CPU Atoms biomass 
     138            0     3717 3.1500014e-11 
ssurf = 2.307468e-03 
ssurf2 = 2.486077e-03 
ssurf3 = 2.661515e-03 
     139 0.00054693222     3717 3.1500014e-11 
Loop time of 0.000555038 on 1 procs for 1 steps with 3717 atoms

100.2% CPU use with 1 MPI tasks x no OpenMP threads
run 1 pre no post no
Step CPU Atoms biomass 
     139            0     3717 3.1500014e-11 
ssurf = 2.307468e-03 
ssurf2 = 2.486077e-03 
ssurf3 = 2.661515e-03 
     140 0.00053501129     3717 3.1500014e-11 
Loop time of 0.000545979 on 1 procs for 1 steps with 3717 atoms

100.0% CPU use with 1 MPI tasks x no OpenMP threads
run 1 pre no post no
Step CPU Atoms biomass 
     140            0     3717 3.1500014e-11 
ssurf = 2.307468e-03 
ssurf2 = 2.486077e-03 
ssurf3 = 2.661515e-03 
     141 0.00053787231     3717 3.1500014e-11 
Loop time of 0.000545025 on 1 procs for 1 steps with 3717 atoms

100.0% CPU use with 1 MPI tasks x no OpenMP threads
run 1 pre no post no
Step CPU Atoms biomass 
     141            0     3717 3.1500014e-11 
ssurf = 2.307468e-03 
ssurf2 = 2.486077e-03 
ssurf3 = 2.661515e-03 
     142 0.00057506561     3717 3.1500014e-11 
Loop time of 0.000584126 on 1 procs for 1 steps with 3717 atoms

99.8% CPU use with 1 MPI tasks x no OpenMP threads
run 1 pre no post no
Step CPU Atoms biomass 
     142            0     3717 3.1500014e-11 
ssurf = 2.307468e-03 
ssurf2 = 2.486077e-03 
ssurf3 = 2.661515e-03 
     143 0.00056791306     3717 3.1500014e-11 
Loop time of 0.000586033 on 1 procs for 1 steps with 3717 atoms

100.2% CPU use with 1 MPI tasks x no OpenMP threads
run 1 pre no post no
Step CPU Atoms biomass 
     143            0     3717 3.1500014e-11 
ssurf = 2.307468e-03 
ssurf2 = 2.486077e-03 
ssurf3 = 2.661515e-03 
     144 0.00054001808     3717 3.1500014e-11 
Loop time of 0.000547171 on 1 procs for 1 steps with 3717 atoms

100.2% CPU use with 1 MPI tasks x no OpenMP threads
run 1 pre no post no
Step CPU Atoms biomass 
     144            0     3717 3.1500014e-11 
ssurf = 2.307468e-03 
ssurf2 = 2.486077e-03 
ssurf3 = 2.661515e-03 
     145 0.00072097778     3717 3.1500014e-11 
Loop time of 0.000731945 on 1 procs for 1 steps with 3717 atoms

100.1% CPU use with 1 MPI tasks x no OpenMP threads
run 1 pre no post no
Step CPU Atoms biomass 
     145            0     3717 3.1500014e-11 
ssurf = 2.307468e-03 
ssurf2 = 2.486077e-03 
ssurf3 = 2.661515e-03 
     146 0.00054883957     3717 3.1500014e-11 
Loop time of 0.000555992 on 1 procs for 1 steps with 3717 atoms

100.2% CPU use with 1 MPI tasks x no OpenMP threads
run 1 pre no post no
Step CPU Atoms biomass 
     146            0     3717 3.1500014e-11 
ssurf = 2.307468e-03 
ssurf2 = 2.486077e-03 
ssurf3 = 2.661515e-03 
     147 0.00060319901     3717 3.1500014e-11 
Loop time of 0.00061512 on 1 procs for 1 steps with 3717 atoms

100.1% CPU use with 1 MPI tasks x no OpenMP threads
run 1 pre no post no
Step CPU Atoms biomass 
     147            0     3717 3.1500014e-11 
ssurf = 2.307468e-03 
ssurf2 = 2.486077e-03 
ssurf3 = 2.661515e-03 
     148 0.00055098534     3717 3.1500014e-11 
Loop time of 0.000560999 on 1 procs for 1 steps with 3717 atoms

100.4% CPU use with 1 MPI tasks x no OpenMP threads
run 1 pre no post no
Step CPU Atoms biomass 
     148            0     3717 3.1500014e-11 
ssurf = 2.307468e-03 
ssurf2 = 2.486077e-03 
ssurf3 = 2.661515e-03 
     149 0.0006248951     3717 3.1500014e-11 
Loop time of 0.000634909 on 1 procs for 1 steps with 3717 atoms

100.3% CPU use with 1 MPI tasks x no OpenMP threads
run 1 pre no post no
Step CPU Atoms biomass 
     149            0     3717 3.1500014e-11 
ssurf = 2.307468e-03 
ssurf2 = 2.486077e-03 
ssurf3 = 2.661515e-03 
     150 0.00064897537     3717 3.1500014e-11 
Loop time of 0.000661135 on 1 procs for 1 steps with 3717 atoms

100.3% CPU use with 1 MPI tasks x no OpenMP threads
run 1 pre no post no
Step CPU Atoms biomass 
     150            0     3717 3.1500014e-11 
ssurf = 2.307468e-03 
ssurf2 = 2.486077e-03 
ssurf3 = 2.661515e-03 
     151 0.00072193146     3717 3.1500014e-11 
Loop time of 0.000743866 on 1 procs for 1 steps with 3717 atoms

98.9% CPU use with 1 MPI tasks x no OpenMP threads
run 1 pre no post no
Step CPU Atoms biomass 
     151            0     3717 3.1500014e-11 
ssurf = 2.307468e-03 
ssurf2 = 2.486077e-03 
ssurf3 = 2.661515e-03 
     152 0.00053095818     3717 3.1500014e-11 
Loop time of 0.000538111 on 1 procs for 1 steps with 3717 atoms

100.2% CPU use with 1 MPI tasks x no OpenMP threads
run 1 pre no post no
Step CPU Atoms biomass 
     152            0     3717 3.1500014e-11 
ssurf = 2.307468e-03 
ssurf2 = 2.486077e-03 
ssurf3 = 2.661515e-03 
     153 0.00057411194     3717 3.1500014e-11 
Loop time of 0.000584126 on 1 procs for 1 steps with 3717 atoms

100.1% CPU use with 1 MPI tasks x no OpenMP threads
run 1 pre no post no
Step CPU Atoms biomass 
     153            0     3717 3.1500014e-11 
ssurf = 2.307468e-03 
ssurf2 = 2.486077e-03 
ssurf3 = 2.661515e-03 
     154 0.00062012672     3717 3.1500014e-11 
Loop time of 0.000632048 on 1 procs for 1 steps with 3717 atoms

99.8% CPU use with 1 MPI tasks x no OpenMP threads
run 1 pre no post no
Step CPU Atoms biomass 
     154            0     3717 3.1500014e-11 
ssurf = 2.307468e-03 
ssurf2 = 2.486077e-03 
ssurf3 = 2.661515e-03 
     155 0.00072479248     3717 3.1500014e-11 
Loop time of 0.000733852 on 1 procs for 1 steps with 3717 atoms

100.2% CPU use with 1 MPI tasks x no OpenMP threads
run 1 pre no post no
Step CPU Atoms biomass 
     155            0     3717 3.1500014e-11 
ssurf = 2.307468e-03 
ssurf2 = 2.486077e-03 
ssurf3 = 2.661515e-03 
     156 0.00070381165     3717 3.1500014e-11 
Loop time of 0.000716925 on 1 procs for 1 steps with 3717 atoms

99.7% CPU use with 1 MPI tasks x no OpenMP threads
run 1 pre no post no
Step CPU Atoms biomass 
     156            0     3717 3.1500014e-11 
ssurf = 2.307468e-03 
ssurf2 = 2.486077e-03 
ssurf3 = 2.661515e-03 
     157 0.00053405762     3717 3.1500014e-11 
Loop time of 0.000540972 on 1 procs for 1 steps with 3717 atoms

100.2% CPU use with 1 MPI tasks x no OpenMP threads
run 1 pre no post no
Step CPU Atoms biomass 
     157            0     3717 3.1500014e-11 
ssurf = 2.307468e-03 
ssurf2 = 2.486077e-03 
ssurf3 = 2.661515e-03 
     158 0.00055909157     3717 3.1500014e-11 
Loop time of 0.000568867 on 1 procs for 1 steps with 3717 atoms

100.2% CPU use with 1 MPI tasks x no OpenMP threads
run 1 pre no post no
Step CPU Atoms biomass 
     158            0     3717 3.1500014e-11 
ssurf = 2.307468e-03 
ssurf2 = 2.486077e-03 
ssurf3 = 2.661515e-03 
     159 0.0005300045     3717 3.1500014e-11 
Loop time of 0.000536919 on 1 procs for 1 steps with 3717 atoms

99.8% CPU use with 1 MPI tasks x no OpenMP threads
run 1 pre no post no
Step CPU Atoms biomass 
     159            0     3717 3.1500014e-11 
ssurf = 2.307468e-03 
ssurf2 = 2.486077e-03 
ssurf3 = 2.661515e-03 
     160 0.00060105324     3717 3.1500014e-11 
Loop time of 0.000610828 on 1 procs for 1 steps with 3717 atoms

100.4% CPU use with 1 MPI tasks x no OpenMP threads
run 1 pre no post no
Step CPU Atoms biomass 
     160            0     3717 3.1500014e-11 
ssurf = 2.307468e-03 
ssurf2 = 2.486077e-03 
ssurf3 = 2.661515e-03 
     161 0.00058102608     3717 3.1500014e-11 
Loop time of 0.000591993 on 1 procs for 1 steps with 3717 atoms

100.2% CPU use with 1 MPI tasks x no OpenMP threads
run 1 pre no post no
Step CPU Atoms biomass 
     161            0     3717 3.1500014e-11 
ssurf = 2.307468e-03 
ssurf2 = 2.486077e-03 
ssurf3 = 2.661515e-03 
     162 0.0010280609     3717 3.1500014e-11 
Loop time of 0.00104403 on 1 procs for 1 steps with 3717 atoms

99.1% CPU use with 1 MPI tasks x no OpenMP threads
run 1 pre no post no
Step CPU Atoms biomass 
     162            0     3717 3.1500014e-11 
ssurf = 2.307468e-03 
ssurf2 = 2.486077e-03 
ssurf3 = 2.661515e-03 
     163 0.00054597855     3717 3.1500014e-11 
Loop time of 0.000554085 on 1 procs for 1 steps with 3717 atoms

99.8% CPU use with 1 MPI tasks x no OpenMP threads
run 1 pre no post no
Step CPU Atoms biomass 
     163            0     3717 3.1500014e-11 
ssurf = 2.307468e-03 
ssurf2 = 2.486077e-03 
ssurf3 = 2.661515e-03 
     164 0.00057506561     3717 3.1500014e-11 
Loop time of 0.000582933 on 1 procs for 1 steps with 3717 atoms

100.0% CPU use with 1 MPI tasks x no OpenMP threads
run 1 pre no post no
Step CPU Atoms biomass 
     164            0     3717 3.1500014e-11 
ssurf = 2.307468e-03 
ssurf2 = 2.486077e-03 
ssurf3 = 2.661515e-03 
     165 0.00062704086     3717 3.1500014e-11 
Loop time of 0.000636101 on 1 procs for 1 steps with 3717 atoms

100.1% CPU use with 1 MPI tasks x no OpenMP threads
run 1 pre no post no
Step CPU Atoms biomass 
     165            0     3717 3.1500014e-11 
ssurf = 2.307468e-03 
ssurf2 = 2.486077e-03 
ssurf3 = 2.661515e-03 
     166 0.00059103966     3717 3.1500014e-11 
Loop time of 0.000602007 on 1 procs for 1 steps with 3717 atoms

100.0% CPU use with 1 MPI tasks x no OpenMP threads
run 1 pre no post no
Step CPU Atoms biomass 
     166            0     3717 3.1500014e-11 
ssurf = 2.307468e-03 
ssurf2 = 2.486077e-03 
ssurf3 = 2.661515e-03 
     167 0.0013349056     3717 3.1500014e-11 
Loop time of 0.00134802 on 1 procs for 1 steps with 3717 atoms

100.1% CPU use with 1 MPI tasks x no OpenMP threads
run 1 pre no post no
Step CPU Atoms biomass 
     167            0     3717 3.1500014e-11 
ssurf = 2.307468e-03 
ssurf2 = 2.486077e-03 
ssurf3 = 2.661515e-03 
     168 0.00076508522     3717 3.1500014e-11 
Loop time of 0.000779152 on 1 procs for 1 steps with 3717 atoms

88.3% CPU use with 1 MPI tasks x no OpenMP threads
run 1 pre no post no
Step CPU Atoms biomass 
     168            0     3717 3.1500014e-11 
ssurf = 2.307468e-03 
ssurf2 = 2.486077e-03 
ssurf3 = 2.661515e-03 
     169 0.00052404404     3717 3.1500014e-11 
Loop time of 0.000543118 on 1 procs for 1 steps with 3717 atoms

100.3% CPU use with 1 MPI tasks x no OpenMP threads
run 1 pre no post no
Step CPU Atoms biomass 
     169            0     3717 3.1500014e-11 
ssurf = 2.307468e-03 
ssurf2 = 2.486077e-03 
ssurf3 = 2.661515e-03 
     170 0.00055098534     3717 3.1500014e-11 
Loop time of 0.000559092 on 1 procs for 1 steps with 3717 atoms

100.3% CPU use with 1 MPI tasks x no OpenMP threads
run 1 pre no post no
Step CPU Atoms biomass 
     170            0     3717 3.1500014e-11 
ssurf = 2.307468e-03 
ssurf2 = 2.486077e-03 
ssurf3 = 2.661515e-03 
     171 0.00058698654     3717 3.1500014e-11 
Loop time of 0.000597 on 1 procs for 1 steps with 3717 atoms

101.7% CPU use with 1 MPI tasks x no OpenMP threads
run 1 pre no post no
Step CPU Atoms biomass 
     171            0     3717 3.1500014e-11 
ssurf = 2.307468e-03 
ssurf2 = 2.486077e-03 
ssurf3 = 2.661515e-03 
     172 0.00072789192     3717 3.1500014e-11 
Loop time of 0.000737906 on 1 procs for 1 steps with 3717 atoms

100.1% CPU use with 1 MPI tasks x no OpenMP threads
run 1 pre no post no
Step CPU Atoms biomass 
     172            0     3717 3.1500014e-11 
ssurf = 2.307468e-03 
ssurf2 = 2.486077e-03 
ssurf3 = 2.661515e-03 
     173 0.00053596497     3717 3.1500014e-11 
Loop time of 0.000543118 on 1 procs for 1 steps with 3717 atoms

100.0% CPU use with 1 MPI tasks x no OpenMP threads
run 1 pre no post no
Step CPU Atoms biomass 
     173            0     3717 3.1500014e-11 
ssurf = 2.307468e-03 
ssurf2 = 2.486077e-03 
ssurf3 = 2.661515e-03 
     174 0.00053215027     3717 3.1500014e-11 
Loop time of 0.000540018 on 1 procs for 1 steps with 3717 atoms

100.2% CPU use with 1 MPI tasks x no OpenMP threads
run 1 pre no post no
Step CPU Atoms biomass 
     174            0     3717 3.1500014e-11 
ssurf = 2.307468e-03 
ssurf2 = 2.486077e-03 
ssurf3 = 2.661515e-03 
     175 0.00054001808     3717 3.1500014e-11 
Loop time of 0.00054884 on 1 procs for 1 steps with 3717 atoms

100.0% CPU use with 1 MPI tasks x no OpenMP threads
run 1 pre no post no
Step CPU Atoms biomass 
     175            0     3717 3.1500014e-11 
ssurf = 2.307468e-03 
ssurf2 = 2.486077e-03 
ssurf3 = 2.661515e-03 
     176 0.00071310997     3717 3.1500014e-11 
Loop time of 0.000725985 on 1 procs for 1 steps with 3717 atoms

100.1% CPU use with 1 MPI tasks x no OpenMP threads
run 1 pre no post no
Step CPU Atoms biomass 
     176            0     3717 3.1500014e-11 
ssurf = 2.307468e-03 
ssurf2 = 2.486077e-03 
ssurf3 = 2.661515e-03 
     177 0.00055193901     3717 3.1500014e-11 
Loop time of 0.000560045 on 1 procs for 1 steps with 3717 atoms

100.0% CPU use with 1 MPI tasks x no OpenMP threads
run 1 pre no post no
Step CPU Atoms biomass 
     177            0     3717 3.1500014e-11 
ssurf = 2.307468e-03 
ssurf2 = 2.486077e-03 
ssurf3 = 2.661515e-03 
     178 0.0006070137     3717 3.1500014e-11 
Loop time of 0.000615835 on 1 procs for 1 steps with 3717 atoms

0.0% CPU use with 1 MPI tasks x no OpenMP threads
run 1 pre no post no
Step CPU Atoms biomass 
     178            0     3717 3.1500014e-11 
ssurf = 2.307468e-03 
ssurf2 = 2.486077e-03 
ssurf3 = 2.661515e-03 
     179 0.0007750988     3717 3.1500014e-11 
Loop time of 0.00078702 on 1 procs for 1 steps with 3717 atoms

100.1% CPU use with 1 MPI tasks x no OpenMP threads
run 1 pre no post no
Step CPU Atoms biomass 
     179            0     3717 3.1500014e-11 
ssurf = 2.307468e-03 
ssurf2 = 2.486077e-03 
ssurf3 = 2.661515e-03 
     180 0.00057196617     3717 3.1500014e-11 
Loop time of 0.000581026 on 1 procs for 1 steps with 3717 atoms

100.2% CPU use with 1 MPI tasks x no OpenMP threads
run 1 pre no post no
Step CPU Atoms biomass 
     180            0     3717 3.1500014e-11 
ssurf = 2.307468e-03 
ssurf2 = 2.486077e-03 
ssurf3 = 2.661515e-03 
     181 0.0009469986     3717 3.1500014e-11 
Loop time of 0.00095892 on 1 procs for 1 steps with 3717 atoms

100.2% CPU use with 1 MPI tasks x no OpenMP threads
run 1 pre no post no
Step CPU Atoms biomass 
     181            0     3717 3.1500014e-11 
ssurf = 2.307468e-03 
ssurf2 = 2.486077e-03 
ssurf3 = 2.661515e-03 
     182 0.00052404404     3717 3.1500014e-11 
Loop time of 0.00053215 on 1 procs for 1 steps with 3717 atoms

100.0% CPU use with 1 MPI tasks x no OpenMP threads
run 1 pre no post no
Step CPU Atoms biomass 
     182            0     3717 3.1500014e-11 
ssurf = 2.307468e-03 
ssurf2 = 2.486077e-03 
ssurf3 = 2.661515e-03 
     183 0.00061297417     3717 3.1500014e-11 
Loop time of 0.000619888 on 1 procs for 1 steps with 3717 atoms

100.2% CPU use with 1 MPI tasks x no OpenMP threads
run 1 pre no post no
Step CPU Atoms biomass 
     183            0     3717 3.1500014e-11 
ssurf = 2.307468e-03 
ssurf2 = 2.486077e-03 
ssurf3 = 2.661515e-03 
     184 0.00077390671     3717 3.1500014e-11 
Loop time of 0.000784874 on 1 procs for 1 steps with 3717 atoms

100.0% CPU use with 1 MPI tasks x no OpenMP threads
run 1 pre no post no
Step CPU Atoms biomass 
     184            0     3717 3.1500014e-11 
ssurf = 2.307468e-03 
ssurf2 = 2.486077e-03 
ssurf3 = 2.661515e-03 
     185 0.00054502487     3717 3.1500014e-11 
Loop time of 0.000552893 on 1 procs for 1 steps with 3717 atoms

100.0% CPU use with 1 MPI tasks x no OpenMP threads
run 1 pre no post no
Step CPU Atoms biomass 
     185            0     3717 3.1500014e-11 
ssurf = 2.307468e-03 
ssurf2 = 2.486077e-03 
ssurf3 = 2.661515e-03 
     186 0.00056290627     3717 3.1500014e-11 
Loop time of 0.00058198 on 1 procs for 1 steps with 3717 atoms

100.2% CPU use with 1 MPI tasks x no OpenMP threads
run 1 pre no post no
Step CPU Atoms biomass 
     186            0     3717 3.1500014e-11 
ssurf = 2.307468e-03 
ssurf2 = 2.486077e-03 
ssurf3 = 2.661515e-03 
     187 0.0005300045     3717 3.1500014e-11 
Loop time of 0.000536919 on 1 procs for 1 steps with 3717 atoms

100.0% CPU use with 1 MPI tasks x no OpenMP threads
run 1 pre no post no
Step CPU Atoms biomass 
     187            0     3717 3.1500014e-11 
ssurf = 2.307468e-03 
ssurf2 = 2.486077e-03 
ssurf3 = 2.661515e-03 
     188 0.00059700012     3717 3.1500014e-11 
Loop time of 0.000607014 on 1 procs for 1 steps with 3717 atoms

100.0% CPU use with 1 MPI tasks x no OpenMP threads
run 1 pre no post no
Step CPU Atoms biomass 
     188            0     3717 3.1500014e-11 
ssurf = 2.307468e-03 
ssurf2 = 2.486077e-03 
ssurf3 = 2.661515e-03 
     189 0.00056791306     3717 3.1500014e-11 
Loop time of 0.000576019 on 1 procs for 1 steps with 3717 atoms

100.2% CPU use with 1 MPI tasks x no OpenMP threads
run 1 pre no post no
Step CPU Atoms biomass 
     189            0     3717 3.1500014e-11 
ssurf = 2.307468e-03 
ssurf2 = 2.486077e-03 
ssurf3 = 2.661515e-03 
     190 0.0009739399     3717 3.1500014e-11 
Loop time of 0.000987053 on 1 procs for 1 steps with 3717 atoms

100.0% CPU use with 1 MPI tasks x no OpenMP threads
run 1 pre no post no
Step CPU Atoms biomass 
     190            0     3717 3.1500014e-11 
ssurf = 2.307468e-03 
ssurf2 = 2.486077e-03 
ssurf3 = 2.661515e-03 
     191 0.00055003166     3717 3.1500014e-11 
Loop time of 0.000560999 on 1 procs for 1 steps with 3717 atoms

100.0% CPU use with 1 MPI tasks x no OpenMP threads
run 1 pre no post no
Step CPU Atoms biomass 
     191            0     3717 3.1500014e-11 
ssurf = 2.307468e-03 
ssurf2 = 2.486077e-03 
ssurf3 = 2.661515e-03 
     192 0.00055384636     3717 3.1500014e-11 
Loop time of 0.000560999 on 1 procs for 1 steps with 3717 atoms

100.2% CPU use with 1 MPI tasks x no OpenMP threads
run 1 pre no post no
Step CPU Atoms biomass 
     192            0     3717 3.1500014e-11 
ssurf = 2.307468e-03 
ssurf2 = 2.486077e-03 
ssurf3 = 2.661515e-03 
     193 0.00052905083     3717 3.1500014e-11 
Loop time of 0.000536203 on 1 procs for 1 steps with 3717 atoms

100.3% CPU use with 1 MPI tasks x no OpenMP threads
run 1 pre no post no
Step CPU Atoms biomass 
     193            0     3717 3.1500014e-11 
ssurf = 2.307468e-03 
ssurf2 = 2.486077e-03 
ssurf3 = 2.661515e-03 
     194 0.00071692467     3717 3.1500014e-11 
Loop time of 0.000741005 on 1 procs for 1 steps with 3717 atoms

101.3% CPU use with 1 MPI tasks x no OpenMP threads
run 1 pre no post no
Step CPU Atoms biomass 
     194            0     3717 3.1500014e-11 
ssurf = 2.307468e-03 
ssurf2 = 2.486077e-03 
ssurf3 = 2.661515e-03 
     195 0.00053119659     3717 3.1500014e-11 
Loop time of 0.000539064 on 1 procs for 1 steps with 3717 atoms

100.2% CPU use with 1 MPI tasks x no OpenMP threads
run 1 pre no post no
Step CPU Atoms biomass 
     195            0     3717 3.1500014e-11 
ssurf = 2.307468e-03 
ssurf2 = 2.486077e-03 
ssurf3 = 2.661515e-03 
     196 0.00056409836     3717 3.1500014e-11 
Loop time of 0.000575066 on 1 procs for 1 steps with 3717 atoms

100.2% CPU use with 1 MPI tasks x no OpenMP threads
run 1 pre no post no
Step CPU Atoms biomass 
     196            0     3717 3.1500014e-11 
ssurf = 2.307468e-03 
ssurf2 = 2.486077e-03 
ssurf3 = 2.661515e-03 
     197 0.00057291985     3717 3.1500014e-11 
Loop time of 0.000580072 on 1 procs for 1 steps with 3717 atoms

100.2% CPU use with 1 MPI tasks x no OpenMP threads
run 1 pre no post no
Step CPU Atoms biomass 
     197            0     3717 3.1500014e-11 
ssurf = 2.307468e-03 
ssurf2 = 2.486077e-03 
ssurf3 = 2.661515e-03 
     198 0.00053286552     3717 3.1500014e-11 
Loop time of 0.000540972 on 1 procs for 1 steps with 3717 atoms

100.4% CPU use with 1 MPI tasks x no OpenMP threads
run 1 pre no post no
Step CPU Atoms biomass 
     198            0     3717 3.1500014e-11 
ssurf = 2.307468e-03 
ssurf2 = 2.486077e-03 
ssurf3 = 2.661515e-03 
     199 0.00059199333     3717 3.1500014e-11 
Loop time of 0.000599146 on 1 procs for 1 steps with 3717 atoms

100.3% CPU use with 1 MPI tasks x no OpenMP threads
run 1 pre no post no
Step CPU Atoms biomass 
     199            0     3717 3.1500014e-11 
ssurf = 2.307468e-03 
ssurf2 = 2.486077e-03 
ssurf3 = 2.661515e-03 
     200 0.00059700012     3717 3.1500014e-11 
Loop time of 0.00060606 on 1 procs for 1 steps with 3717 atoms

100.3% CPU use with 1 MPI tasks x no OpenMP threads
run 1 pre no post no
Step CPU Atoms biomass 
     200            0     3717 3.1500014e-11 
ssurf = 2.307468e-03 
ssurf2 = 2.486077e-03 
ssurf3 = 2.661515e-03 
     201 0.00054097176     3717 3.1500014e-11 
Loop time of 0.000548124 on 1 procs for 1 steps with 3717 atoms

100.0% CPU use with 1 MPI tasks x no OpenMP threads
run 1 pre no post no
Step CPU Atoms biomass 
     201            0     3717 3.1500014e-11 
ssurf = 2.307468e-03 
ssurf2 = 2.486077e-03 
ssurf3 = 2.661515e-03 
     202 0.00057291985     3717 3.1500014e-11 
Loop time of 0.000581026 on 1 procs for 1 steps with 3717 atoms

100.2% CPU use with 1 MPI tasks x no OpenMP threads
run 1 pre no post no
Step CPU Atoms biomass 
     202            0     3717 3.1500014e-11 
number of iterations: 128846 
ssurf = 2.434188e-03 
ssurf2 = 2.621757e-03 
ssurf3 = 2.805640e-03 
     203    179.51067     3717 3.1500014e-11 
Loop time of 179.511 on 1 procs for 1 steps with 3717 atoms

99.8% CPU use with 1 MPI tasks x no OpenMP threads
run 1 pre no post no
Step CPU Atoms biomass 
     203            0     3717 3.1500014e-11 
ssurf = 2.434188e-03 
ssurf2 = 2.621757e-03 
ssurf3 = 2.805640e-03 
     204 0.00055909157     3717 3.1500014e-11 
Loop time of 0.000570059 on 1 procs for 1 steps with 3717 atoms

101.6% CPU use with 1 MPI tasks x no OpenMP threads
run 1 pre no post no
Step CPU Atoms biomass 
     204            0     3717 3.1500014e-11 
ssurf = 2.434188e-03 
ssurf2 = 2.621757e-03 
ssurf3 = 2.805640e-03 
     205 0.00078988075     3717 3.1500014e-11 
Loop time of 0.000805855 on 1 procs for 1 steps with 3717 atoms

100.1% CPU use with 1 MPI tasks x no OpenMP threads
run 1 pre no post no
Step CPU Atoms biomass 
     205            0     3717 3.1500014e-11 
ssurf = 2.434188e-03 
ssurf2 = 2.621757e-03 
ssurf3 = 2.805640e-03 
     206 0.00060081482     3717 3.1500014e-11 
Loop time of 0.000613928 on 1 procs for 1 steps with 3717 atoms

100.0% CPU use with 1 MPI tasks x no OpenMP threads
run 1 pre no post no
Step CPU Atoms biomass 
     206            0     3717 3.1500014e-11 
ssurf = 2.434188e-03 
ssurf2 = 2.621757e-03 
ssurf3 = 2.805640e-03 
     207 0.00097203255     3717 3.1500014e-11 
Loop time of 0.000985861 on 1 procs for 1 steps with 3717 atoms

100.0% CPU use with 1 MPI tasks x no OpenMP threads
run 1 pre no post no
Step CPU Atoms biomass 
     207            0     3717 3.1500014e-11 
ssurf = 2.434188e-03 
ssurf2 = 2.621757e-03 
ssurf3 = 2.805640e-03 
     208 0.00068998337     3717 3.1500014e-11 
Loop time of 0.000702858 on 1 procs for 1 steps with 3717 atoms

100.3% CPU use with 1 MPI tasks x no OpenMP threads
run 1 pre no post no
Step CPU Atoms biomass 
     208            0     3717 3.1500014e-11 
ssurf = 2.434188e-03 
ssurf2 = 2.621757e-03 
ssurf3 = 2.805640e-03 
     209 0.00053501129     3717 3.1500014e-11 
Loop time of 0.000545025 on 1 procs for 1 steps with 3717 atoms

100.4% CPU use with 1 MPI tasks x no OpenMP threads
run 1 pre no post no
Step CPU Atoms biomass 
     209            0     3717 3.1500014e-11 
ssurf = 2.434188e-03 
ssurf2 = 2.621757e-03 
ssurf3 = 2.805640e-03 
     210 0.00055408478     3717 3.1500014e-11 
Loop time of 0.000564098 on 1 procs for 1 steps with 3717 atoms

100.0% CPU use with 1 MPI tasks x no OpenMP threads
run 1 pre no post no
Step CPU Atoms biomass 
     210            0     3717 3.1500014e-11 
ssurf = 2.434188e-03 
ssurf2 = 2.621757e-03 
ssurf3 = 2.805640e-03 
     211 0.00055217743     3717 3.1500014e-11 
Loop time of 0.000560999 on 1 procs for 1 steps with 3717 atoms

100.2% CPU use with 1 MPI tasks x no OpenMP threads
run 1 pre no post no
Step CPU Atoms biomass 
     211            0     3717 3.1500014e-11 
ssurf = 2.434188e-03 
ssurf2 = 2.621757e-03 
ssurf3 = 2.805640e-03 
     212 0.0010929108     3717 3.1500014e-11 
Loop time of 0.00110388 on 1 procs for 1 steps with 3717 atoms

100.3% CPU use with 1 MPI tasks x no OpenMP threads
run 1 pre no post no
Step CPU Atoms biomass 
     212            0     3717 3.1500014e-11 
ssurf = 2.434188e-03 
ssurf2 = 2.621757e-03 
ssurf3 = 2.805640e-03 
     213 0.00085091591     3717 3.1500014e-11 
Loop time of 0.000864983 on 1 procs for 1 steps with 3717 atoms

100.0% CPU use with 1 MPI tasks x no OpenMP threads
run 1 pre no post no
Step CPU Atoms biomass 
     213            0     3717 3.1500014e-11 
ssurf = 2.434188e-03 
ssurf2 = 2.621757e-03 
ssurf3 = 2.805640e-03 
     214 0.00061511993     3717 3.1500014e-11 
Loop time of 0.000625134 on 1 procs for 1 steps with 3717 atoms

101.1% CPU use with 1 MPI tasks x no OpenMP threads
run 1 pre no post no
Step CPU Atoms biomass 
     214            0     3717 3.1500014e-11 
ssurf = 2.434188e-03 
ssurf2 = 2.621757e-03 
ssurf3 = 2.805640e-03 
     215 0.00061416626     3717 3.1500014e-11 
Loop time of 0.00062418 on 1 procs for 1 steps with 3717 atoms

100.0% CPU use with 1 MPI tasks x no OpenMP threads
run 1 pre no post no
Step CPU Atoms biomass 
     215            0     3717 3.1500014e-11 
ssurf = 2.434188e-03 
ssurf2 = 2.621757e-03 
ssurf3 = 2.805640e-03 
     216 0.00058794022     3717 3.1500014e-11 
Loop time of 0.0006001 on 1 procs for 1 steps with 3717 atoms

100.2% CPU use with 1 MPI tasks x no OpenMP threads
run 1 pre no post no
Step CPU Atoms biomass 
     216            0     3717 3.1500014e-11 
ssurf = 2.434188e-03 
ssurf2 = 2.621757e-03 
ssurf3 = 2.805640e-03 
     217 0.00056195259     3717 3.1500014e-11 
Loop time of 0.00057292 on 1 procs for 1 steps with 3717 atoms

100.2% CPU use with 1 MPI tasks x no OpenMP threads
run 1 pre no post no
Step CPU Atoms biomass 
     217            0     3717 3.1500014e-11 
ssurf = 2.434188e-03 
ssurf2 = 2.621757e-03 
ssurf3 = 2.805640e-03 
     218 0.00061893463     3717 3.1500014e-11 
Loop time of 0.000627995 on 1 procs for 1 steps with 3717 atoms

100.2% CPU use with 1 MPI tasks x no OpenMP threads
run 1 pre no post no
Step CPU Atoms biomass 
     218            0     3717 3.1500014e-11 
ssurf = 2.434188e-03 
ssurf2 = 2.621757e-03 
ssurf3 = 2.805640e-03 
     219 0.00077486038     3717 3.1500014e-11 
Loop time of 0.000785828 on 1 procs for 1 steps with 3717 atoms

100.1% CPU use with 1 MPI tasks x no OpenMP threads
run 1 pre no post no
Step CPU Atoms biomass 
     219            0     3717 3.1500014e-11 
ssurf = 2.434188e-03 
ssurf2 = 2.621757e-03 
ssurf3 = 2.805640e-03 
     220 0.00066399574     3717 3.1500014e-11 
Loop time of 0.000674963 on 1 procs for 1 steps with 3717 atoms

100.0% CPU use with 1 MPI tasks x no OpenMP threads
run 1 pre no post no
Step CPU Atoms biomass 
     220            0     3717 3.1500014e-11 
ssurf = 2.434188e-03 
ssurf2 = 2.621757e-03 
ssurf3 = 2.805640e-03 
     221 0.00064206123     3717 3.1500014e-11 
Loop time of 0.000653982 on 1 procs for 1 steps with 3717 atoms

99.7% CPU use with 1 MPI tasks x no OpenMP threads
run 1 pre no post no
Step CPU Atoms biomass 
     221            0     3717 3.1500014e-11 
ssurf = 2.434188e-03 
ssurf2 = 2.621757e-03 
ssurf3 = 2.805640e-03 
     222 0.00073981285     3717 3.1500014e-11 
Loop time of 0.000751972 on 1 procs for 1 steps with 3717 atoms

100.1% CPU use with 1 MPI tasks x no OpenMP threads
run 1 pre no post no
Step CPU Atoms biomass 
     222            0     3717 3.1500014e-11 
ssurf = 2.434188e-03 
ssurf2 = 2.621757e-03 
ssurf3 = 2.805640e-03 
     223 0.0006840229     3717 3.1500014e-11 
Loop time of 0.000694036 on 1 procs for 1 steps with 3717 atoms

100.0% CPU use with 1 MPI tasks x no OpenMP threads
run 1 pre no post no
Step CPU Atoms biomass 
     223            0     3717 3.1500014e-11 
ssurf = 2.434188e-03 
ssurf2 = 2.621757e-03 
ssurf3 = 2.805640e-03 
     224 0.00054812431     3717 3.1500014e-11 
Loop time of 0.000555992 on 1 procs for 1 steps with 3717 atoms

100.4% CPU use with 1 MPI tasks x no OpenMP threads
run 1 pre no post no
Step CPU Atoms biomass 
     224            0     3717 3.1500014e-11 
ssurf = 2.434188e-03 
ssurf2 = 2.621757e-03 
ssurf3 = 2.805640e-03 
     225 0.0013101101     3717 3.1500014e-11 
Loop time of 0.00132513 on 1 procs for 1 steps with 3717 atoms

99.8% CPU use with 1 MPI tasks x no OpenMP threads
run 1 pre no post no
Step CPU Atoms biomass 
     225            0     3717 3.1500014e-11 
ssurf = 2.434188e-03 
ssurf2 = 2.621757e-03 
ssurf3 = 2.805640e-03 
     226 0.00057196617     3717 3.1500014e-11 
Loop time of 0.00058198 on 1 procs for 1 steps with 3717 atoms

100.3% CPU use with 1 MPI tasks x no OpenMP threads
run 1 pre no post no
Step CPU Atoms biomass 
     226            0     3717 3.1500014e-11 
ssurf = 2.434188e-03 
ssurf2 = 2.621757e-03 
ssurf3 = 2.805640e-03 
     227 0.00052809715     3717 3.1500014e-11 
Loop time of 0.000538111 on 1 procs for 1 steps with 3717 atoms

99.8% CPU use with 1 MPI tasks x no OpenMP threads
run 1 pre no post no
Step CPU Atoms biomass 
     227            0     3717 3.1500014e-11 
ssurf = 2.434188e-03 
ssurf2 = 2.621757e-03 
ssurf3 = 2.805640e-03 
     228 0.00061988831     3717 3.1500014e-11 
Loop time of 0.000630856 on 1 procs for 1 steps with 3717 atoms

100.2% CPU use with 1 MPI tasks x no OpenMP threads
run 1 pre no post no
Step CPU Atoms biomass 
     228            0     3717 3.1500014e-11 
ssurf = 2.434188e-03 
ssurf2 = 2.621757e-03 
ssurf3 = 2.805640e-03 
     229 0.00060606003     3717 3.1500014e-11 
Loop time of 0.00061512 on 1 procs for 1 steps with 3717 atoms

100.1% CPU use with 1 MPI tasks x no OpenMP threads
run 1 pre no post no
Step CPU Atoms biomass 
     229            0     3717 3.1500014e-11 
ssurf = 2.434188e-03 
ssurf2 = 2.621757e-03 
ssurf3 = 2.805640e-03 
     230 0.00083518028     3717 3.1500014e-11 
Loop time of 0.000847101 on 1 procs for 1 steps with 3717 atoms

100.2% CPU use with 1 MPI tasks x no OpenMP threads
run 1 pre no post no
Step CPU Atoms biomass 
     230            0     3717 3.1500014e-11 
ssurf = 2.434188e-03 
ssurf2 = 2.621757e-03 
ssurf3 = 2.805640e-03 
     231 0.00062799454     3717 3.1500014e-11 
Loop time of 0.000640869 on 1 procs for 1 steps with 3717 atoms

99.7% CPU use with 1 MPI tasks x no OpenMP threads
run 1 pre no post no
Step CPU Atoms biomass 
     231            0     3717 3.1500014e-11 
ssurf = 2.434188e-03 
ssurf2 = 2.621757e-03 
ssurf3 = 2.805640e-03 
     232 0.0006301403     3717 3.1500014e-11 
Loop time of 0.000640154 on 1 procs for 1 steps with 3717 atoms

99.8% CPU use with 1 MPI tasks x no OpenMP threads
run 1 pre no post no
Step CPU Atoms biomass 
     232            0     3717 3.1500014e-11 
ssurf = 2.434188e-03 
ssurf2 = 2.621757e-03 
ssurf3 = 2.805640e-03 
     233 0.00056004524     3717 3.1500014e-11 
Loop time of 0.000571012 on 1 procs for 1 steps with 3717 atoms

100.2% CPU use with 1 MPI tasks x no OpenMP threads
run 1 pre no post no
Step CPU Atoms biomass 
     233            0     3717 3.1500014e-11 
ssurf = 2.434188e-03 
ssurf2 = 2.621757e-03 
ssurf3 = 2.805640e-03 
     234 0.00054907799     3717 3.1500014e-11 
Loop time of 0.000556946 on 1 procs for 1 steps with 3717 atoms

100.0% CPU use with 1 MPI tasks x no OpenMP threads
run 1 pre no post no
Step CPU Atoms biomass 
     234            0     3717 3.1500014e-11 
ssurf = 2.434188e-03 
ssurf2 = 2.621757e-03 
ssurf3 = 2.805640e-03 
     235 0.00078988075     3717 3.1500014e-11 
Loop time of 0.00080204 on 1 procs for 1 steps with 3717 atoms

100.0% CPU use with 1 MPI tasks x no OpenMP threads
run 1 pre no post no
Step CPU Atoms biomass 
     235            0     3717 3.1500014e-11 
ssurf = 2.434188e-03 
ssurf2 = 2.621757e-03 
ssurf3 = 2.805640e-03 
     236 0.00085496902     3717 3.1500014e-11 
Loop time of 0.000867844 on 1 procs for 1 steps with 3717 atoms

99.7% CPU use with 1 MPI tasks x no OpenMP threads
run 1 pre no post no
Step CPU Atoms biomass 
     236            0     3717 3.1500014e-11 
ssurf = 2.434188e-03 
ssurf2 = 2.621757e-03 
ssurf3 = 2.805640e-03 
     237 0.00054502487     3717 3.1500014e-11 
Loop time of 0.000555992 on 1 procs for 1 steps with 3717 atoms

100.2% CPU use with 1 MPI tasks x no OpenMP threads
run 1 pre no post no
Step CPU Atoms biomass 
     237            0     3717 3.1500014e-11 
ssurf = 2.434188e-03 
[...]
Step CPU Atoms biomass 
    2968            0     3717 3.1500014e-11 
ssurf = 2.544969e-03 
ssurf2 = 2.739444e-03 
ssurf3 = 2.929557e-03 
    2969 0.00056695938     3717 3.1500014e-11 
Loop time of 0.000573874 on 1 procs for 1 steps with 3717 atoms

100.2% CPU use with 1 MPI tasks x no OpenMP threads
run 1 pre no post no
Step CPU Atoms biomass 
    2969            0     3717 3.1500014e-11 
ssurf = 2.544969e-03 
ssurf2 = 2.739444e-03 
ssurf3 = 2.929557e-03 
    2970 0.00056695938     3717 3.1500014e-11 
Loop time of 0.000575066 on 1 procs for 1 steps with 3717 atoms

100.2% CPU use with 1 MPI tasks x no OpenMP threads
run 1 pre no post no
Step CPU Atoms biomass 
    2970            0     3717 3.1500014e-11 
ssurf = 2.544969e-03 
ssurf2 = 2.739444e-03 
ssurf3 = 2.929557e-03 
    2971 0.00055098534     3717 3.1500014e-11 
Loop time of 0.000560999 on 1 procs for 1 steps with 3717 atoms

100.2% CPU use with 1 MPI tasks x no OpenMP threads
run 1 pre no post no
Step CPU Atoms biomass 
    2971            0     3717 3.1500014e-11 
ssurf = 2.544969e-03 
ssurf2 = 2.739444e-03 
ssurf3 = 2.929557e-03 
    2972 0.00061798096     3717 3.1500014e-11 
Loop time of 0.000626087 on 1 procs for 1 steps with 3717 atoms

98.5% CPU use with 1 MPI tasks x no OpenMP threads
run 1 pre no post no
Step CPU Atoms biomass 
    2972            0     3717 3.1500014e-11 
ssurf = 2.544969e-03 
ssurf2 = 2.739444e-03 
ssurf3 = 2.929557e-03 
    2973 0.00055980682     3717 3.1500014e-11 
Loop time of 0.000567913 on 1 procs for 1 steps with 3717 atoms

98.6% CPU use with 1 MPI tasks x no OpenMP threads
run 1 pre no post no
Step CPU Atoms biomass 
    2973            0     3717 3.1500014e-11 
ssurf = 2.544969e-03 
ssurf2 = 2.739444e-03 
ssurf3 = 2.929557e-03 
    2974 0.00055003166     3717 3.1500014e-11 
Loop time of 0.000556946 on 1 procs for 1 steps with 3717 atoms

98.6% CPU use with 1 MPI tasks x no OpenMP threads
run 1 pre no post no
Step CPU Atoms biomass 
    2974            0     3717 3.1500014e-11 
ssurf = 2.544969e-03 
ssurf2 = 2.739444e-03 
ssurf3 = 2.929557e-03 
    2975 0.0005440712     3717 3.1500014e-11 
Loop time of 0.000551939 on 1 procs for 1 steps with 3717 atoms

100.2% CPU use with 1 MPI tasks x no OpenMP threads
run 1 pre no post no
Step CPU Atoms biomass 
    2975            0     3717 3.1500014e-11 
ssurf = 2.544969e-03 
ssurf2 = 2.739444e-03 
ssurf3 = 2.929557e-03 
    2976 0.00053882599     3717 3.1500014e-11 
Loop time of 0.000545979 on 1 procs for 1 steps with 3717 atoms

100.2% CPU use with 1 MPI tasks x no OpenMP threads
run 1 pre no post no
Step CPU Atoms biomass 
    2976            0     3717 3.1500014e-11 
ssurf = 2.544969e-03 
ssurf2 = 2.739444e-03 
ssurf3 = 2.929557e-03 
    2977 0.00054097176     3717 3.1500014e-11 
Loop time of 0.000557899 on 1 procs for 1 steps with 3717 atoms

100.2% CPU use with 1 MPI tasks x no OpenMP threads
run 1 pre no post no
Step CPU Atoms biomass 
    2977            0     3717 3.1500014e-11 
ssurf = 2.544969e-03 
ssurf2 = 2.739444e-03 
ssurf3 = 2.929557e-03 
    2978 0.00051808357     3717 3.1500014e-11 
Loop time of 0.00052619 on 1 procs for 1 steps with 3717 atoms

98.6% CPU use with 1 MPI tasks x no OpenMP threads
run 1 pre no post no
Step CPU Atoms biomass 
    2978            0     3717 3.1500014e-11 
ssurf = 2.544969e-03 
ssurf2 = 2.739444e-03 
ssurf3 = 2.929557e-03 
    2979 0.0005440712     3717 3.1500014e-11 
Loop time of 0.000550985 on 1 procs for 1 steps with 3717 atoms

100.0% CPU use with 1 MPI tasks x no OpenMP threads
run 1 pre no post no
Step CPU Atoms biomass 
    2979            0     3717 3.1500014e-11 
ssurf = 2.544969e-03 
ssurf2 = 2.739444e-03 
ssurf3 = 2.929557e-03 
    2980 0.00053405762     3717 3.1500014e-11 
Loop time of 0.000540972 on 1 procs for 1 steps with 3717 atoms

100.2% CPU use with 1 MPI tasks x no OpenMP threads
run 1 pre no post no
Step CPU Atoms biomass 
    2980            0     3717 3.1500014e-11 
ssurf = 2.544969e-03 
ssurf2 = 2.739444e-03 
ssurf3 = 2.929557e-03 
    2981 0.00062704086     3717 3.1500014e-11 
Loop time of 0.000638962 on 1 procs for 1 steps with 3717 atoms

98.4% CPU use with 1 MPI tasks x no OpenMP threads
run 1 pre no post no
Step CPU Atoms biomass 
    2981            0     3717 3.1500014e-11 
ssurf = 2.544969e-03 
ssurf2 = 2.739444e-03 
ssurf3 = 2.929557e-03 
    2982 0.00057291985     3717 3.1500014e-11 
Loop time of 0.000588894 on 1 procs for 1 steps with 3717 atoms

100.2% CPU use with 1 MPI tasks x no OpenMP threads
run 1 pre no post no
Step CPU Atoms biomass 
    2982            0     3717 3.1500014e-11 
ssurf = 2.544969e-03 
ssurf2 = 2.739444e-03 
ssurf3 = 2.929557e-03 
    2983 0.00058484077     3717 3.1500014e-11 
Loop time of 0.000593901 on 1 procs for 1 steps with 3717 atoms

100.2% CPU use with 1 MPI tasks x no OpenMP threads
run 1 pre no post no
Step CPU Atoms biomass 
    2983            0     3717 3.1500014e-11 
ssurf = 2.544969e-03 
ssurf2 = 2.739444e-03 
ssurf3 = 2.929557e-03 
    2984 0.00054001808     3717 3.1500014e-11 
Loop time of 0.000546932 on 1 procs for 1 steps with 3717 atoms

100.2% CPU use with 1 MPI tasks x no OpenMP threads
run 1 pre no post no
Step CPU Atoms biomass 
    2984            0     3717 3.1500014e-11 
ssurf = 2.544969e-03 
ssurf2 = 2.739444e-03 
ssurf3 = 2.929557e-03 
    2985 0.00053095818     3717 3.1500014e-11 
Loop time of 0.000545979 on 1 procs for 1 steps with 3717 atoms

97.1% CPU use with 1 MPI tasks x no OpenMP threads
run 1 pre no post no
Step CPU Atoms biomass 
    2985            0     3717 3.1500014e-11 
ssurf = 2.544969e-03 
ssurf2 = 2.739444e-03 
ssurf3 = 2.929557e-03 
    2986 0.00053119659     3717 3.1500014e-11 
Loop time of 0.000538111 on 1 procs for 1 steps with 3717 atoms

98.7% CPU use with 1 MPI tasks x no OpenMP threads
run 1 pre no post no
Step CPU Atoms biomass 
    2986            0     3717 3.1500014e-11 
ssurf = 2.544969e-03 
ssurf2 = 2.739444e-03 
ssurf3 = 2.929557e-03 
    2987 0.00052809715     3717 3.1500014e-11 
Loop time of 0.000535965 on 1 procs for 1 steps with 3717 atoms

98.5% CPU use with 1 MPI tasks x no OpenMP threads
run 1 pre no post no
Step CPU Atoms biomass 
    2987            0     3717 3.1500014e-11 
ssurf = 2.544969e-03 
ssurf2 = 2.739444e-03 
ssurf3 = 2.929557e-03 
    2988 0.00074005127     3717 3.1500014e-11 
Loop time of 0.000751019 on 1 procs for 1 steps with 3717 atoms

100.1% CPU use with 1 MPI tasks x no OpenMP threads
run 1 pre no post no
Step CPU Atoms biomass 
    2988            0     3717 3.1500014e-11 
ssurf = 2.544969e-03 
ssurf2 = 2.739444e-03 
ssurf3 = 2.929557e-03 
    2989 0.00056791306     3717 3.1500014e-11 
Loop time of 0.000580072 on 1 procs for 1 steps with 3717 atoms

100.5% CPU use with 1 MPI tasks x no OpenMP threads
run 1 pre no post no
Step CPU Atoms biomass 
    2989            0     3717 3.1500014e-11 
ssurf = 2.544969e-03 
ssurf2 = 2.739444e-03 
ssurf3 = 2.929557e-03 
    2990 0.00052905083     3717 3.1500014e-11 
Loop time of 0.000536919 on 1 procs for 1 steps with 3717 atoms

98.5% CPU use with 1 MPI tasks x no OpenMP threads
run 1 pre no post no
Step CPU Atoms biomass 
    2990            0     3717 3.1500014e-11 
ssurf = 2.544969e-03 
ssurf2 = 2.739444e-03 
ssurf3 = 2.929557e-03 
    2991 0.00056004524     3717 3.1500014e-11 
Loop time of 0.000566959 on 1 procs for 1 steps with 3717 atoms

100.2% CPU use with 1 MPI tasks x no OpenMP threads
run 1 pre no post no
Step CPU Atoms biomass 
    2991            0     3717 3.1500014e-11 
ssurf = 2.544969e-03 
ssurf2 = 2.739444e-03 
ssurf3 = 2.929557e-03 
    2992 0.0005671978     3717 3.1500014e-11 
Loop time of 0.000587225 on 1 procs for 1 steps with 3717 atoms

98.6% CPU use with 1 MPI tasks x no OpenMP threads
run 1 pre no post no
Step CPU Atoms biomass 
    2992            0     3717 3.1500014e-11 
ssurf = 2.544969e-03 
ssurf2 = 2.739444e-03 
ssurf3 = 2.929557e-03 
    2993 0.00056314468     3717 3.1500014e-11 
Loop time of 0.000571012 on 1 procs for 1 steps with 3717 atoms

100.2% CPU use with 1 MPI tasks x no OpenMP threads
run 1 pre no post no
Step CPU Atoms biomass 
    2993            0     3717 3.1500014e-11 
ssurf = 2.544969e-03 
ssurf2 = 2.739444e-03 
ssurf3 = 2.929557e-03 
    2994 0.00052714348     3717 3.1500014e-11 
Loop time of 0.000534058 on 1 procs for 1 steps with 3717 atoms

98.7% CPU use with 1 MPI tasks x no OpenMP threads
run 1 pre no post no
Step CPU Atoms biomass 
    2994            0     3717 3.1500014e-11 
ssurf = 2.544969e-03 
ssurf2 = 2.739444e-03 
ssurf3 = 2.929557e-03 
    2995 0.0006608963     3717 3.1500014e-11 
Loop time of 0.00067091 on 1 procs for 1 steps with 3717 atoms

100.0% CPU use with 1 MPI tasks x no OpenMP threads
run 1 pre no post no
Step CPU Atoms biomass 
    2995            0     3717 3.1500014e-11 
ssurf = 2.544969e-03 
ssurf2 = 2.739444e-03 
ssurf3 = 2.929557e-03 
    2996 0.00055098534     3717 3.1500014e-11 
Loop time of 0.000559092 on 1 procs for 1 steps with 3717 atoms

100.2% CPU use with 1 MPI tasks x no OpenMP threads
run 1 pre no post no
Step CPU Atoms biomass 
    2996            0     3717 3.1500014e-11 
ssurf = 2.544969e-03 
ssurf2 = 2.739444e-03 
ssurf3 = 2.929557e-03 
    2997 0.00056219101     3717 3.1500014e-11 
Loop time of 0.000570059 on 1 procs for 1 steps with 3717 atoms

100.0% CPU use with 1 MPI tasks x no OpenMP threads
run 1 pre no post no
Step CPU Atoms biomass 
    2997            0     3717 3.1500014e-11 
ssurf = 2.544969e-03 
ssurf2 = 2.739444e-03 
ssurf3 = 2.929557e-03 
    2998 0.0005800724     3717 3.1500014e-11 
Loop time of 0.000586987 on 1 procs for 1 steps with 3717 atoms

100.2% CPU use with 1 MPI tasks x no OpenMP threads
run 1 pre no post no
Step CPU Atoms biomass 
    2998            0     3717 3.1500014e-11 
ssurf = 2.544969e-03 
ssurf2 = 2.739444e-03 
ssurf3 = 2.929557e-03 
    2999 0.00056290627     3717 3.1500014e-11 
Loop time of 0.000571012 on 1 procs for 1 steps with 3717 atoms

98.8% CPU use with 1 MPI tasks x no OpenMP threads
run 1 pre no post no
Step CPU Atoms biomass 
    2999            0     3717 3.1500014e-11 
ssurf = 2.544969e-03 
ssurf2 = 2.739444e-03 
ssurf3 = 2.929557e-03 
    3000 0.00055289268     3717 3.1500014e-11 
Loop time of 0.000560045 on 1 procs for 1 steps with 3717 atoms

98.6% CPU use with 1 MPI tasks x no OpenMP threads
run 1 pre no post no
Step CPU Atoms biomass 
    3000            0     3717 3.1500014e-11 
ssurf = 2.544969e-03 
ssurf2 = 2.739444e-03 
ssurf3 = 2.929557e-03 
    3001 0.00055599213     3717 3.1500014e-11 
Loop time of 0.00056386 on 1 procs for 1 steps with 3717 atoms

100.4% CPU use with 1 MPI tasks x no OpenMP threads
run 1 pre no post no
Step CPU Atoms biomass 
    3001            0     3717 3.1500014e-11 
ssurf = 2.544969e-03 
ssurf2 = 2.739444e-03 
ssurf3 = 2.929557e-03 
    3002 0.00057196617     3717 3.1500014e-11 
Loop time of 0.000580072 on 1 procs for 1 steps with 3717 atoms

98.4% CPU use with 1 MPI tasks x no OpenMP threads
run 1 pre no post no
Step CPU Atoms biomass 
    3002            0     3717 3.1500014e-11 
ssurf = 2.544969e-03 
ssurf2 = 2.739444e-03 
ssurf3 = 2.929557e-03 
    3003 0.00061011314     3717 3.1500014e-11 
Loop time of 0.000617981 on 1 procs for 1 steps with 3717 atoms

98.5% CPU use with 1 MPI tasks x no OpenMP threads
run 1 pre no post no
Step CPU Atoms biomass 
    3003            0     3717 3.1500014e-11 
ssurf = 2.544969e-03 
ssurf2 = 2.739444e-03 
ssurf3 = 2.929557e-03 
    3004 0.00057697296     3717 3.1500014e-11 
Loop time of 0.000583887 on 1 procs for 1 steps with 3717 atoms

100.4% CPU use with 1 MPI tasks x no OpenMP threads
run 1 pre no post no
Step CPU Atoms biomass 
    3004            0     3717 3.1500014e-11 
ssurf = 2.544969e-03 
ssurf2 = 2.739444e-03 
ssurf3 = 2.929557e-03 
    3005 0.00053286552     3717 3.1500014e-11 
Loop time of 0.00053978 on 1 procs for 1 steps with 3717 atoms

98.7% CPU use with 1 MPI tasks x no OpenMP threads
run 1 pre no post no
Step CPU Atoms biomass 
    3005            0     3717 3.1500014e-11 
ssurf = 2.544969e-03 
ssurf2 = 2.739444e-03 
ssurf3 = 2.929557e-03 
    3006 0.00052690506     3717 3.1500014e-11 
Loop time of 0.000533819 on 1 procs for 1 steps with 3717 atoms

100.4% CPU use with 1 MPI tasks x no OpenMP threads
run 1 pre no post no
Step CPU Atoms biomass 
    3006            0     3717 3.1500014e-11 
ssurf = 2.544969e-03 
ssurf2 = 2.739444e-03 
ssurf3 = 2.929557e-03 
    3007 0.00053811073     3717 3.1500014e-11 
Loop time of 0.000545979 on 1 procs for 1 steps with 3717 atoms

100.2% CPU use with 1 MPI tasks x no OpenMP threads
run 1 pre no post no
Step CPU Atoms biomass 
    3007            0     3717 3.1500014e-11 
ssurf = 2.544969e-03 
ssurf2 = 2.739444e-03 
ssurf3 = 2.929557e-03 
    3008 0.00057721138     3717 3.1500014e-11 
Loop time of 0.000594139 on 1 procs for 1 steps with 3717 atoms

98.5% CPU use with 1 MPI tasks x no OpenMP threads
run 1 pre no post no
Step CPU Atoms biomass 
    3008            0     3717 3.1500014e-11 
ssurf = 2.544969e-03 
ssurf2 = 2.739444e-03 
ssurf3 = 2.929557e-03 
    3009 0.00054693222     3717 3.1500014e-11 
Loop time of 0.000555038 on 1 procs for 1 steps with 3717 atoms

100.2% CPU use with 1 MPI tasks x no OpenMP threads
run 1 pre no post no
Step CPU Atoms biomass 
    3009            0     3717 3.1500014e-11 
ssurf = 2.544969e-03 
ssurf2 = 2.739444e-03 
ssurf3 = 2.929557e-03 
    3010 0.00055098534     3717 3.1500014e-11 
Loop time of 0.000558138 on 1 procs for 1 steps with 3717 atoms

101.9% CPU use with 1 MPI tasks x no OpenMP threads
run 1 pre no post no
Step CPU Atoms biomass 
    3010            0     3717 3.1500014e-11 
ssurf = 2.544969e-03 
ssurf2 = 2.739444e-03 
ssurf3 = 2.929557e-03 
    3011 0.00054097176     3717 3.1500014e-11 
Loop time of 0.000549078 on 1 procs for 1 steps with 3717 atoms

100.2% CPU use with 1 MPI tasks x no OpenMP threads
run 1 pre no post no
Step CPU Atoms biomass 
    3011            0     3717 3.1500014e-11 
ssurf = 2.544969e-03 
ssurf2 = 2.739444e-03 
ssurf3 = 2.929557e-03 
    3012 0.00055098534     3717 3.1500014e-11 
Loop time of 0.000556946 on 1 procs for 1 steps with 3717 atoms

100.2% CPU use with 1 MPI tasks x no OpenMP threads
run 1 pre no post no
Step CPU Atoms biomass 
    3012            0     3717 3.1500014e-11 
ssurf = 2.544969e-03 
ssurf2 = 2.739444e-03 
ssurf3 = 2.929557e-03 
    3013 0.00057196617     3717 3.1500014e-11 
Loop time of 0.000579119 on 1 procs for 1 steps with 3717 atoms

101.5% CPU use with 1 MPI tasks x no OpenMP threads
run 1 pre no post no
Step CPU Atoms biomass 
    3013            0     3717 3.1500014e-11 
ssurf = 2.544969e-03 
ssurf2 = 2.739444e-03 
ssurf3 = 2.929557e-03 
    3014 0.00068187714     3717 3.1500014e-11 
Loop time of 0.000693083 on 1 procs for 1 steps with 3717 atoms

100.1% CPU use with 1 MPI tasks x no OpenMP threads
run 1 pre no post no
Step CPU Atoms biomass 
    3014            0     3717 3.1500014e-11 
ssurf = 2.544969e-03 
ssurf2 = 2.739444e-03 
ssurf3 = 2.929557e-03 
    3015 0.00052905083     3717 3.1500014e-11 
Loop time of 0.000535965 on 1 procs for 1 steps with 3717 atoms

100.2% CPU use with 1 MPI tasks x no OpenMP threads
run 1 pre no post no
Step CPU Atoms biomass 
    3015            0     3717 3.1500014e-11 
ssurf = 2.544969e-03 
ssurf2 = 2.739444e-03 
ssurf3 = 2.929557e-03 
    3016 0.00058317184     3717 3.1500014e-11 
Loop time of 0.000590086 on 1 procs for 1 steps with 3717 atoms

100.2% CPU use with 1 MPI tasks x no OpenMP threads
run 1 pre no post no
Step CPU Atoms biomass 
    3016            0     3717 3.1500014e-11 
ssurf = 2.544969e-03 
ssurf2 = 2.739444e-03 
ssurf3 = 2.929557e-03 
    3017 0.00053596497     3717 3.1500014e-11 
Loop time of 0.000542879 on 1 procs for 1 steps with 3717 atoms

100.4% CPU use with 1 MPI tasks x no OpenMP threads
run 1 pre no post no
Step CPU Atoms biomass 
    3017            0     3717 3.1500014e-11 
ssurf = 2.544969e-03 
ssurf2 = 2.739444e-03 
ssurf3 = 2.929557e-03 
    3018 0.00057792664     3717 3.1500014e-11 
Loop time of 0.000586033 on 1 procs for 1 steps with 3717 atoms

98.6% CPU use with 1 MPI tasks x no OpenMP threads
run 1 pre no post no
Step CPU Atoms biomass 
    3018            0     3717 3.1500014e-11 
ssurf = 2.544969e-03 
ssurf2 = 2.739444e-03 
ssurf3 = 2.929557e-03 
    3019 0.00053405762     3717 3.1500014e-11 
Loop time of 0.000540972 on 1 procs for 1 steps with 3717 atoms

100.2% CPU use with 1 MPI tasks x no OpenMP threads
run 1 pre no post no
Step CPU Atoms biomass 
    3019            0     3717 3.1500014e-11 
ssurf = 2.544969e-03 
ssurf2 = 2.739444e-03 
ssurf3 = 2.929557e-03 
    3020 0.00054097176     3717 3.1500014e-11 
Loop time of 0.000548124 on 1 procs for 1 steps with 3717 atoms

98.3% CPU use with 1 MPI tasks x no OpenMP threads
run 1 pre no post no
Step CPU Atoms biomass 
    3020            0     3717 3.1500014e-11 
ssurf = 2.544969e-03 
ssurf2 = 2.739444e-03 
ssurf3 = 2.929557e-03 
    3021 0.00054597855     3717 3.1500014e-11 
Loop time of 0.000552893 on 1 procs for 1 steps with 3717 atoms

98.8% CPU use with 1 MPI tasks x no OpenMP threads
run 1 pre no post no
Step CPU Atoms biomass 
    3021            0     3717 3.1500014e-11 
ssurf = 2.544969e-03 
ssurf2 = 2.739444e-03 
ssurf3 = 2.929557e-03 
    3022 0.00057697296     3717 3.1500014e-11 
Loop time of 0.000583887 on 1 procs for 1 steps with 3717 atoms

100.2% CPU use with 1 MPI tasks x no OpenMP threads
run 1 pre no post no
Step CPU Atoms biomass 
    3022            0     3717 3.1500014e-11 
ssurf = 2.544969e-03 
ssurf2 = 2.739444e-03 
ssurf3 = 2.929557e-03 
    3023 0.00058197975     3717 3.1500014e-11 
Loop time of 0.000592947 on 1 procs for 1 steps with 3717 atoms

100.0% CPU use with 1 MPI tasks x no OpenMP threads
run 1 pre no post no
Step CPU Atoms biomass 
    3023            0     3717 3.1500014e-11 
ssurf = 2.544969e-03 
ssurf2 = 2.739444e-03 
ssurf3 = 2.929557e-03 
    3024 0.0005440712     3717 3.1500014e-11 
Loop time of 0.000554085 on 1 procs for 1 steps with 3717 atoms

100.2% CPU use with 1 MPI tasks x no OpenMP threads
run 1 pre no post no
Step CPU Atoms biomass 
    3024            0     3717 3.1500014e-11 
ssurf = 2.544969e-03 
ssurf2 = 2.739444e-03 
ssurf3 = 2.929557e-03 
    3025 0.00053095818     3717 3.1500014e-11 
Loop time of 0.000537872 on 1 procs for 1 steps with 3717 atoms

98.5% CPU use with 1 MPI tasks x no OpenMP threads
run 1 pre no post no
Step CPU Atoms biomass 
    3025            0     3717 3.1500014e-11 
ssurf = 2.544969e-03 
ssurf2 = 2.739444e-03 
ssurf3 = 2.929557e-03 
    3026 0.00057077408     3717 3.1500014e-11 
Loop time of 0.000577927 on 1 procs for 1 steps with 3717 atoms

100.2% CPU use with 1 MPI tasks x no OpenMP threads
run 1 pre no post no
Step CPU Atoms biomass 
    3026            0     3717 3.1500014e-11 
ssurf = 2.544969e-03 
ssurf2 = 2.739444e-03 
ssurf3 = 2.929557e-03 
    3027 0.0005440712     3717 3.1500014e-11 
Loop time of 0.000552177 on 1 procs for 1 steps with 3717 atoms

100.0% CPU use with 1 MPI tasks x no OpenMP threads
run 1 pre no post no
Step CPU Atoms biomass 
    3027            0     3717 3.1500014e-11 
ssurf = 2.544969e-03 
ssurf2 = 2.739444e-03 
ssurf3 = 2.929557e-03 
    3028 0.00053215027     3717 3.1500014e-11 
Loop time of 0.000540018 on 1 procs for 1 steps with 3717 atoms

100.4% CPU use with 1 MPI tasks x no OpenMP threads
run 1 pre no post no
Step CPU Atoms biomass 
    3028            0     3717 3.1500014e-11 
ssurf = 2.544969e-03 
ssurf2 = 2.739444e-03 
ssurf3 = 2.929557e-03 
    3029 0.00054907799     3717 3.1500014e-11 
Loop time of 0.000559092 on 1 procs for 1 steps with 3717 atoms

100.5% CPU use with 1 MPI tasks x no OpenMP threads
run 1 pre no post no
Step CPU Atoms biomass 
    3029            0     3717 3.1500014e-11 
ssurf = 2.544969e-03 
ssurf2 = 2.739444e-03 
ssurf3 = 2.929557e-03 
    3030 0.0005800724     3717 3.1500014e-11 
Loop time of 0.00058794 on 1 procs for 1 steps with 3717 atoms

100.4% CPU use with 1 MPI tasks x no OpenMP threads
Total wall time: 2:51:57
