  Granular Flow Simulation 

       80 atoms 
       2 atom types 
       5 nutrients

   0.0   1.0e-04  xlo xhi 
   0.0   4.0e-05  ylo yhi 
   0.0   1.0e-04  zlo zhi 

 Atoms

     1 1 1.0e-6 150 0.5e-5 0.5e-5 1e-6 1.0e-6  
     2 1 1.0e-6 150 1.5e-5 0.5e-5 1e-6 1.0e-6  
     3 1 1.0e-6 150 2.5e-5 0.5e-5 1e-6 1.0e-6  
     4 1 1.0e-6 150 3.5e-5 0.5e-5 1e-6 1.0e-6  
     5 1 1.0e-6 150 4.5e-5 0.5e-5 1e-6 1.0e-6  
     6 1 1.0e-6 150 5.5e-5 0.5e-5 1e-6 1.0e-6  
     7 1 1.0e-6 150 6.5e-5 0.5e-5 1e-6 1.0e-6  
     8 1 1.0e-6 150 7.5e-5 0.5e-5 1e-6 1.0e-6  
     9 1 1.0e-6 150 8.5e-5 0.5e-5 1e-6 1.0e-6  
     10 1 1.0e-6 150 9.5e-5 0.5e-5 1e-6 1.0e-6  
     11 1 1.0e-6 150 0.5e-5 1.5e-5 1e-6 1.0e-6  
     12 1 1.0e-6 150 1.5e-5 1.5e-5 1e-6 1.0e-6  
     13 1 1.0e-6 150 2.5e-5 1.5e-5 1e-6 1.0e-6  
     14 1 1.0e-6 150 3.5e-5 1.5e-5 1e-6 1.0e-6  
     15 1 1.0e-6 150 4.5e-5 1.5e-5 1e-6 1.0e-6  
     16 1 1.0e-6 150 5.5e-5 1.5e-5 1e-6 1.0e-6  
     17 1 1.0e-6 150 6.5e-5 1.5e-5 1e-6 1.0e-6  
     18 1 1.0e-6 150 7.5e-5 1.5e-5 1e-6 1.0e-6  
     19 1 1.0e-6 150 8.5e-5 1.5e-5 1e-6 1.0e-6  
     20 1 1.0e-6 150 9.5e-5 1.5e-5 1e-6 1.0e-6  
     21 1 1.0e-6 150 0.5e-5 2.5e-5 1e-6 1.0e-6  
     22 1 1.0e-6 150 1.5e-5 2.5e-5 1e-6 1.0e-6  
     23 1 1.0e-6 150 2.5e-5 2.5e-5 1e-6 1.0e-6  
     24 1 1.0e-6 150 3.5e-5 2.5e-5 1e-6 1.0e-6  
     25 1 1.0e-6 150 4.5e-5 2.5e-5 1e-6 1.0e-6  
     26 1 1.0e-6 150 5.5e-5 2.5e-5 1e-6 1.0e-6  
     27 1 1.0e-6 150 6.5e-5 2.5e-5 1e-6 1.0e-6  
     28 1 1.0e-6 150 7.5e-5 2.5e-5 1e-6 1.0e-6  
     29 1 1.0e-6 150 8.5e-5 2.5e-5 1e-6 1.0e-6  
     30 1 1.0e-6 150 9.5e-5 2.5e-5 1e-6 1.0e-6  
     31 1 1.0e-6 150 0.5e-5 3.5e-5 1e-6 1.0e-6  
     32 1 1.0e-6 150 1.5e-5 3.5e-5 1e-6 1.0e-6  
     33 1 1.0e-6 150 2.5e-5 3.5e-5 1e-6 1.0e-6  
     34 1 1.0e-6 150 3.5e-5 3.5e-5 1e-6 1.0e-6  
     35 1 1.0e-6 150 4.5e-5 3.5e-5 1e-6 1.0e-6  
     36 1 1.0e-6 150 5.5e-5 3.5e-5 1e-6 1.0e-6  
     37 1 1.0e-6 150 6.5e-5 3.5e-5 1e-6 1.0e-6  
     38 1 1.0e-6 150 7.5e-5 3.5e-5 1e-6 1.0e-6  
     39 1 1.0e-6 150 8.5e-5 3.5e-5 1e-6 1.0e-6  
     40 1 1.0e-6 150 9.5e-5 3.5e-5 1e-6 1.0e-6  
     41 2 1.0e-6 150 0.5e-5 0.6e-5 1e-6 1.0e-6  
     42 2 1.0e-6 150 1.5e-5 0.6e-5 1e-6 1.0e-6  
     43 2 1.0e-6 150 2.5e-5 0.6e-5 1e-6 1.0e-6  
     44 2 1.0e-6 150 3.5e-5 0.6e-5 1e-6 1.0e-6  
     45 2 1.0e-6 150 4.5e-5 0.6e-5 1e-6 1.0e-6  
     46 2 1.0e-6 150 5.5e-5 0.6e-5 1e-6 1.0e-6  
     47 2 1.0e-6 150 6.5e-5 0.6e-5 1e-6 1.0e-6  
     48 2 1.0e-6 150 7.5e-5 0.6e-5 1e-6 1.0e-6  
     49 2 1.0e-6 150 8.5e-5 0.6e-5 1e-6 1.0e-6  
     50 2 1.0e-6 150 9.5e-5 0.6e-5 1e-6 1.0e-6  
     51 2 1.0e-6 150 0.5e-5 1.6e-5 1e-6 1.0e-6  
     52 2 1.0e-6 150 1.5e-5 1.6e-5 1e-6 1.0e-6  
     53 2 1.0e-6 150 2.5e-5 1.6e-5 1e-6 1.0e-6  
     54 2 1.0e-6 150 3.5e-5 1.6e-5 1e-6 1.0e-6  
     55 2 1.0e-6 150 4.5e-5 1.6e-5 1e-6 1.0e-6  
     56 2 1.0e-6 150 5.5e-5 1.6e-5 1e-6 1.0e-6  
     57 2 1.0e-6 150 6.5e-5 1.6e-5 1e-6 1.0e-6  
     58 2 1.0e-6 150 7.5e-5 1.6e-5 1e-6 1.0e-6  
     59 2 1.0e-6 150 8.5e-5 1.6e-5 1e-6 1.0e-6  
     60 2 1.0e-6 150 9.5e-5 1.6e-5 1e-6 1.0e-6  
     61 2 1.0e-6 150 0.5e-5 2.6e-5 1e-6 1.0e-6  
     62 2 1.0e-6 150 1.5e-5 2.6e-5 1e-6 1.0e-6  
     63 2 1.0e-6 150 2.5e-5 2.6e-5 1e-6 1.0e-6  
     64 2 1.0e-6 150 3.5e-5 2.6e-5 1e-6 1.0e-6  
     65 2 1.0e-6 150 4.5e-5 2.6e-5 1e-6 1.0e-6  
     66 2 1.0e-6 150 5.5e-5 2.6e-5 1e-6 1.0e-6  
     67 2 1.0e-6 150 6.5e-5 2.6e-5 1e-6 1.0e-6  
     68 2 1.0e-6 150 7.5e-5 2.6e-5 1e-6 1.0e-6  
     69 2 1.0e-6 150 8.5e-5 2.6e-5 1e-6 1.0e-6  
     70 2 1.0e-6 150 9.5e-5 2.6e-5 1e-6 1.0e-6  
     71 2 1.0e-6 150 0.5e-5 3.6e-5 1e-6 1.0e-6  
     72 2 1.0e-6 150 1.5e-5 3.6e-5 1e-6 1.0e-6  
     73 2 1.0e-6 150 2.5e-5 3.6e-5 1e-6 1.0e-6  
     74 2 1.0e-6 150 3.5e-5 3.6e-5 1e-6 1.0e-6  
     75 2 1.0e-6 150 4.5e-5 3.6e-5 1e-6 1.0e-6  
     76 2 1.0e-6 150 5.5e-5 3.6e-5 1e-6 1.0e-6  
     77 2 1.0e-6 150 6.5e-5 3.6e-5 1e-6 1.0e-6  
     78 2 1.0e-6 150 7.5e-5 3.6e-5 1e-6 1.0e-6  
     79 2 1.0e-6 150 8.5e-5 3.6e-5 1e-6 1.0e-6  
     80 2 1.0e-6 150 9.5e-5 3.6e-5 1e-6 1.0e-6  

 Nutrients

     1 sub l 1e-20 1e-20 1e-20 1e-20 1e-20 1e-20 1e-20
     2 o2 l 1e-3 1e-3 1e-3 1e-3 1e-3 1e-3 1e-3
     3 no2 l 1e-20 1e-20 1e-20 1e-20 1e-20 1e-20 1e-20
     4 no3 l 1e-20 1e-20 1e-20 1e-20 1e-20 1e-20 1e-20
     5 nh4 l 1e-20 1e-20 1e-20 1e-20 1e-20 1e-20 1e-20

 Type Name

     1 hetr
     2 hety

 Diffusion Coeffs
    
     sub 0
     o2 2e-9
     no2 0
     no3 0
     nh4 0

 Ks
     
     hety 0 3e-4 0 0 0
     hetr 0 6e-4 0 0 0

 Growth Rate

     hety 0.000022778
     hetr 0.000045556

 Yield
    
     hety 0.046
     hetr 0.023

 Maintenance
 
     hety 0
     hetr 0

 Decay

     hety 0
     hetr 0



