  Granular Flow Simulation 

       3  atoms 
          6 atom types 

   0.000000e-04   1.000000e-04  xlo xhi 
   0.000000e-04   4.000000e-05  ylo yhi 
   0.000000e-04   1.000000e-04  zlo zhi 

 Atoms

     1 1 1.0e-6 150 5e-05 2.0e-05 5e-05 1.0e-6 8.00e-02 10.00e-03 9.00e-02 8.000e-03 1.0000e-05 
     2 2 1.0e-6 150 5.1e-05 2.0e-05 5e-05 1.0e-6 8.00e-02 10.00e-03 9.00e-02 8.000e-03 1.0000e-05 
     3 3 1.0e-6 150 4.9e-05 2.0e-05 5e-05 1.0e-6 8.00e-02 10.00e-03 9.00e-02 8.000e-03 1.0000e-05 
    
