  Granular Flow Simulation 

       5 atoms 
       2 atom types 
       5 nutrients

   0.000000e-04   2.000000e-04  xlo xhi 
   0.000000e-04   4.000000e-05  ylo yhi 
   0.000000e-04   1.000000e-04  zlo zhi 

 Atoms

     1 1 1.0e-6 150 3.0e-05 2.1e-05 0.2e-05 1.0e-6  
     2 1 1.0e-6 150 3.1e-05 2.1e-05 0.2e-05 1.0e-6  
     3 1 1.0e-6 150 3.0e-05 1.9e-05 0.2e-05 1.0e-6  
     4 1 1.0e-6 150 3.1e-05 1.9e-05 0.2e-05 1.0e-6  
     5 2 1.0e-8 150 5.1e-05 1.9e-05 0.2e-05 1.0e-8  


 Nutrients

     1 sub l 1e-4 1e-4 1e-4 1e-4 1e-4 1e-4 1e-4
     2 o2 l 1e-4 1e-4 1e-4 1e-4 1e-4 1e-4 1e-4
     3 no2 l 1e-4 1e-4 1e-4 1e-4 1e-4 1e-4 1e-4
     4 no3 l 1e-4 1e-4 1e-4 1e-4 1e-4 1e-4 1e-4
     5 nh4 l 1e-4 1e-4 1e-4 1e-4 1e-4 1e-4 1e-4

 Type Name

     1 het
     2 eps

 Diffusion Coeffs
    
     sub 1.6e-9
     o2 2.30e-9
     no2 1.15e-9
     no3 1.15e-9
     nh4 1.15e-9

 Ks
     
     het 3.5e-5 0 0.0003 0.0003 0
     eps 0 0 0 0 0

 Growth Rate

     het 0.00028 
     eps 0

 Yield
    
     het 0.61
     eps 0.18

 Maintenance
 
     het 0
     eps 0

 Decay

     het 0
     eps 0



