LAMMPS (5 Nov 2016)
# NUFEB simulation

atom_style	bio
atom_modify	map array sort 1000 5.0e-7
boundary	ff ff ff
newton		off
#processors  2 1 1

comm_modify	vel yes
read_data_bio atom.in
  orthogonal box = (0 0 0) to (0.0002 4e-05 0.0001)
  1 by 1 by 1 MPI processor grid
  reading atoms ...
  5 atoms
  5 nutrients

group HET type 1
4 atoms in group HET
group EPS type 2
1 atoms in group EPS

neighbor	5e-7 bin
neigh_modify	delay 0 one 5000

timestep 200

fix 1 all nve/limit 1e-8

fix fv all viscous 1e-5

##############Ibm Variable Definitions##############

#Defining EPS density and ratio variables
variable EPSdens equal 30
variable EPSratio equal 1.25
variable divMass equal 2e-16

variable ke equal 5e+9

#Defining kinetics variables
variable temp equal 298.15
variable gasTran equal 0.08205746
variable gvol equal 8e-14
variable rth equal 0.0083144
variable pressure equal 1
variable ph equal 7.0
variable etaHET equal 0.0

#Defining diffusion variables
variable diffT equal 5e-4
variable tol equal 1e-6
variable bl equal -1
variable Q equal -1
variable rvol equal 1
variable Af equal -1

#Defining shear force parameters
variable viscosity equal 0.001
variable shearRate equal 0.2
variable height equal 0.0

fix s1 all shear 1 v_viscosity v_shearRate v_height zx 0 800000

##############Ibm compute##############

compute myNtypes all ntypes
compute myBiomass all biomass

##############Simulation outputs##############

dump		id all custom 2000 snapshot.bubblemd id type diameter x y z
thermo_style    custom step cpu atoms biomass c_myNtypes[*]
thermo		100
thermo_modify	lost ignore

##############Ibm functions##############
label       loopa
variable    a loop 1


pair_style  gran/hooke/history 1.e-4 NULL 1.e-5 NULL 0.0 1

pair_coeff  * *
timestep 10

fix 1 all nve/limit 1e-8

fix 10 all viscous 1.e-5

fix xw all wall/gran hooke/history 0.0 NULL 0.0 NULL 1.5 0 xplane  0.000000e-04 2.000000e-04
fix yw all wall/gran hooke/history 2000 NULL 500.0 NULL 1.5 0 zplane  0.000000e-04 1.000000e-04

variable kanc equal 50

fix xwa all walladh v_kanc xplane  0.000000e-04 2.000000e-04
fix zwa all walladh v_kanc zplane  0.000000e-04 1.000000e-04


##############Ibm functions##############
fix k1 all kinetics 100 60 12 30 v_temp v_rth v_gvol v_gasTran v_ph v_diffT v_bl
fix kgm all kinetics/growth/monod v_EPSdens v_etaHET
fix g1 all kinetics/diffusion v_shearRate v_tol v_Q v_rvol v_Af pp pp nd kg
fix j1 all epsadh 1 v_ke 1
fix d1 all divide 100 v_EPSdens v_divMass 31233
fix e1 HET eps_extract 100 v_EPSratio v_EPSdens 12422423

unfix s1

run 40000
Neighbor list info ...
  3 neighbor list requests
  update every 1 steps, delay 0 steps, check yes
  max neighbors/atom: 5000, page size: 100000
  master list distance cutoff = 1.5e-06
  ghost atom cutoff = 1.5e-06
  binsize = 7.5e-07 -> bins = 267 54 134
Memory usage per processor = 17.3316 Mbytes
Step CPU Atoms biomass c_myNtypes[1] c_myNtypes[2] 
       0            0        5 3.1415934e-16            4            1 
     100    5.8254299        5 3.7844651e-16            4            1 
     200     8.935159        5 4.5596296e-16            4            1 
     300    12.459881        5 5.4908928e-16            4            1 
     400    16.525867        5 6.6084494e-16            4            1 
     500    21.175882        5 7.9477412e-16            4            1 
     600    26.493113        9 1.041896e-15            4            5 
     700    32.589753       13 1.233012e-15            8            5 
     800    39.449069       15 1.4883683e-15            8            7 
     900      47.0266       22 1.8694304e-15            9           13 
    1000    55.452644       25 2.1882379e-15           12           13 
    1100    64.492631       32 2.6252172e-15           15           17 
    1200    74.648291       44 3.2329673e-15           16           28 
    1300     85.93992       49 3.747693e-15           21           28 
    1400    97.997849       59 4.4560041e-15           23           36 
    1500     110.4667       81 5.3481628e-15           28           53 
    1600      124.258       90 6.183502e-15           33           57 
    1700    139.14671      106 7.1859585e-15           40           66 
    1800    153.37967      128 8.4187247e-15           45           83 
    1900    167.95645      154 9.7475087e-15           53          101 
    2000    183.22153      175 1.1171081e-14           61          114 
    2100    197.39849      193 1.265514e-14           69          124 
    2200    212.40127      235 1.4547995e-14           80          155 
    2300    226.78084      265 1.6416423e-14           89          176 
    2400    241.31095      293 1.8360776e-14          101          192 
    2500    255.45866      330 2.0511789e-14          114          216 
    2600    269.86782      368 2.2815248e-14          128          240 
    2700    283.20659      411 2.5254336e-14          143          268 
    2800    295.73748      445 2.7722715e-14          155          290 
    2900    307.24923      497 3.0427324e-14          173          324 
    3000    319.21836      553 3.3213158e-14          193          360 
    3100    330.68972      592 3.6009461e-14          206          386 
    3200    342.83053      641 3.8952508e-14          222          419 
    3300    352.94048      690 4.1917262e-14          241          449 
    3400    363.31509      747 4.4998844e-14          265          482 
    3500    372.88023      793 4.8135413e-14          279          514 
    3600    381.60561      847 5.1419545e-14          294          553 
    3700    390.16151      898 5.4662678e-14          313          585 
    3800    398.47143      954 5.7956668e-14          336          618 
    3900    407.31184     1006 6.1292735e-14          359          647 
    4000    416.65937     1055 6.4650529e-14          380          675 
    4100    424.34441     1127 6.818608e-14          411          716 
    4200    433.04215     1198  7.19558e-14          430          768 
    4300    440.15022     1268 7.5783409e-14          449          819 
    4400    448.55423     1329 7.9518796e-14          472          857 
    4500    455.02948     1394 8.3335854e-14          495          899 
    4600    462.88588     1453 8.7101796e-14          519          934 
    4700    468.69303     1513 9.0913244e-14          543          970 
    4800    475.42096     1570 9.4763007e-14          565         1005 
    4900    483.61349     1635 9.8739406e-14          588         1047 
    5000    488.20638     1717 1.0285422e-13          619         1098 
    5100    496.89086     1793 1.0706112e-13          641         1152 
    5200    502.91084     1856 1.1100999e-13          672         1184 
    5300    510.01818     1920 1.1505403e-13          699         1221 
    5400    515.08309     1994 1.1935348e-13          721         1273 
    5500     520.4902     2053 1.2347216e-13          741         1312 
    5600    527.24731     2134 1.2780459e-13          772         1362 
    5700    533.07185     2202 1.3213599e-13          793         1409 
    5800    538.59241     2289 1.3671574e-13          816         1473 
    5900    543.83857     2342 1.4090714e-13          840         1502 
    6000    549.34227     2408 1.4512161e-13          873         1535 
    6100    555.96339     2478 1.4953909e-13          901         1577 
    6200    561.75107     2565 1.5409269e-13          934         1631 
    6300     567.0428     2640 1.5857867e-13          962         1678 
    6400    573.16871     2718 1.6311975e-13          991         1727 
    6500    577.36688     2797 1.6784046e-13         1013         1784 
    6600    583.81163     2879 1.7243997e-13         1046         1833 
    6700    588.45542     2960 1.7723375e-13         1069         1891 
    6800    593.88267     3027 1.8182713e-13         1098         1929 
    6900    599.54703     3101 1.8645791e-13         1129         1972 
    7000    603.17015     3181 1.9101712e-13         1173         2008 
    7100    606.85341     3256 1.957257e-13         1200         2056 
    7200    611.35194     3330 2.0052177e-13         1223         2107 
    7300    616.79153     3413 2.0536827e-13         1254         2159 
    7400    621.47586     3506 2.1029223e-13         1290         2216 
    7500    626.00688     3592 2.1517884e-13         1326         2266 
    7600    631.42165     3670 2.1995905e-13         1359         2311 
    7700    635.57872     3732 2.2473138e-13         1382         2350 
    7800    639.58194     3802 2.2950437e-13         1411         2391 
    7900    645.14498     3878 2.3449862e-13         1437         2441 
    8000    649.54191     3973 2.3963928e-13         1470         2503 
    8100    655.09854     4079 2.4482232e-13         1509         2570 
    8200     658.5407     4161 2.4988726e-13         1537         2624 
    8300    662.82593     4264 2.5509078e-13         1578         2686 
    8400    667.15906     4317 2.5989856e-13         1599         2718 
    8500    670.70851     4417 2.6521468e-13         1633         2784 
    8600    674.95464     4478 2.7014702e-13         1657         2821 
    8700    678.42308     4546 2.7514878e-13         1684         2862 
    8800    682.83109     4626 2.8028285e-13         1712         2914 
    8900    686.41722     4715 2.8539895e-13         1752         2963 
    9000    690.78077     4803 2.9073859e-13         1778         3025 
    9100    693.85551     4882 2.9586459e-13         1813         3069 
    9200    697.33958     4979 3.0125608e-13         1845         3134 
    9300     701.0211     5060 3.0653687e-13         1873         3187 
    9400    705.09973     5142 3.1174126e-13         1907         3235 
    9500    709.99667     5257 3.1730759e-13         1949         3308 
    9600    713.09648     5342 3.2245243e-13         1992         3350 
    9700    717.90898     5430 3.2782023e-13         2021         3409 
    9800    721.19823     5511 3.3325685e-13         2047         3464 
    9900    724.71006     5581 3.384363e-13         2080         3501 
   10000    728.62487     5667 3.4382609e-13         2113         3554 
   10100    732.47781     5773 3.4938489e-13         2155         3618 
   10200    737.14677     5858 3.5481546e-13         2188         3670 
   10300    740.69935     5946 3.6042202e-13         2214         3732 
   10400    744.61149     6050 3.6599578e-13         2254         3796 
   10500    748.54185     6153 3.7154294e-13         2299         3854 
   10600    751.78581     6258 3.7728445e-13         2333         3925 
   10700    755.16183     6331 3.8262666e-13         2369         3962 
   10800    759.49853     6422 3.8833027e-13         2397         4025 
   10900    763.84171     6522 3.9391136e-13         2439         4083 
   11000    768.35362     6621 3.9948994e-13         2484         4137 
   11100     770.9473     6725 4.0524988e-13         2521         4204 
   11200    776.12131     6836 4.1118056e-13         2557         4279 
   11300    779.30421     6921 4.1685115e-13         2585         4336 
   11400    783.60758     7016 4.2255818e-13         2618         4398 
   11500    786.97152     7106 4.2818393e-13         2655         4451 
   11600    790.32989     7204 4.3391098e-13         2695         4509 
   11700    794.37165     7301 4.3968279e-13         2733         4568 
   11800    797.79382     7379 4.4518294e-13         2771         4608 
   11900    802.91385     7474 4.5094111e-13         2810         4664 
   12000    805.94317     7563 4.5665783e-13         2844         4719 
   12100    809.98576     7665 4.6247153e-13         2888         4777 
   12200    814.95214     7762 4.6840808e-13         2920         4842 
   12300    817.89236     7885 4.7447028e-13         2968         4917 
   12400     821.2996     7985 4.8031015e-13         3008         4977 
   12500    824.15337     8069 4.8619163e-13         3031         5038 
   12600    828.16094     8168 4.9215875e-13         3069         5099 
   12700    831.71268     8262 4.9811925e-13         3097         5165 
   12800    835.40669     8374 5.0418179e-13         3137         5237 
   12900    839.36756     8469 5.1007633e-13         3176         5293 
   13000    843.19201     8554 5.1606253e-13         3201         5353 
   13100    846.96071     8634 5.2178126e-13         3240         5394 
   13200    851.44014     8733 5.2779121e-13         3277         5456 
   13300    854.51691     8841 5.3390317e-13         3320         5521 
   13400    858.61804     8942 5.3992737e-13         3359         5583 
   13500    861.17799     9040 5.4614532e-13         3383         5657 
   13600    864.43765     9148 5.523913e-13         3420         5728 
   13700    867.57178     9238 5.5823587e-13         3466         5772 
   13800    870.85739     9322 5.6408081e-13         3506         5816 
   13900    874.10169     9422 5.7032356e-13         3538         5884 
   14000    877.78685     9538 5.765806e-13         3583         5955 
   14100    881.83791     9620 5.8268082e-13         3608         6012 
   14200    885.55262     9733 5.8897505e-13         3650         6083 
   14300    889.51906     9839 5.9519792e-13         3689         6150 
   14400    893.02441     9934 6.0126975e-13         3735         6199 
   14500    897.19947    10044 6.0756126e-13         3777         6267 
   14600    901.42059    10163 6.1401597e-13         3818         6345 
   14700    904.59083    10270 6.2026333e-13         3865         6405 
   14800    908.33127    10350 6.262823e-13         3903         6447 
   14900    911.91205    10455 6.3260248e-13         3942         6513 
   15000     916.0323    10550 6.3868329e-13         3990         6560 
   15100    920.09673    10665 6.4519198e-13         4028         6637 
   15200     923.1849    10773 6.5163964e-13         4062         6711 
   15300    926.70146    10853 6.5777018e-13         4099         6754 
   15400    929.75745    10959 6.6408775e-13         4144         6815 
   15500    932.48639    11073 6.7045257e-13         4189         6884 
   15600    935.26802    11204 6.7703167e-13         4242         6962 
   15700    938.44061    11290 6.8327026e-13         4276         7014 
   15800    941.23662    11390 6.8970976e-13         4310         7080 
   15900       945.94    11491 6.9614003e-13         4348         7143 
   16000    949.82328    11591 7.0256835e-13         4384         7207 
   16100    952.74466    11694 7.089995e-13         4423         7271 
   16200    955.88443    11810 7.1555176e-13         4467         7343 
   16300    959.19378    11922  7.21971e-13         4517         7405 
   16400    962.88908    12017 7.2839063e-13         4555         7462 
   16500    967.41835    12119 7.348843e-13         4593         7526 
   16600    970.09806    12206 7.4116881e-13         4633         7573 
   16700    973.24028    12307 7.4775957e-13         4665         7642 
   16800    976.80607    12428 7.545398e-13         4702         7726 
   16900    980.92872    12533 7.6101627e-13         4746         7787 
   17000    984.64769    12646 7.675874e-13         4795         7851 
   17100    987.25826    12741 7.7395428e-13         4838         7903 
   17200    991.64616    12867 7.8085846e-13         4877         7990 
   17300    996.15041    12986 7.8766307e-13         4919         8067 
   17400    1000.0965    13094 7.9427499e-13         4963         8131 
   17500    1004.2446    13223 8.0106978e-13         5013         8210 
   17600    1007.8786    13336 8.0769954e-13         5060         8276 
   17700    1012.4164    13428 8.1432754e-13         5092         8336 
   17800    1015.9458    13539 8.2099558e-13         5138         8401 
   17900    1020.4359    13649 8.2782064e-13         5176         8473 
   18000    1023.9875    13757 8.3451051e-13         5221         8536 
   18100    1027.2404    13876 8.4124901e-13         5272         8604 
   18200    1030.8836    13981 8.4790874e-13         5317         8664 
   18300     1035.489    14084 8.5471307e-13         5350         8734 
   18400     1039.133    14189 8.614576e-13         5391         8798 
   18500     1043.409    14285 8.6833818e-13         5417         8868 
   18600    1047.7439    14426 8.7547789e-13         5467         8959 
   18700    1051.2875    14544 8.8240365e-13         5511         9033 
   18800    1055.3306    14660 8.8940694e-13         5551         9109 
   18900    1059.4308    14757 8.9616262e-13         5589         9168 
   19000    1063.3008    14877 9.0312842e-13         5632         9245 
   19100    1067.1603    14999 9.1030707e-13         5669         9330 
   19200    1071.4021    15107 9.1718158e-13         5714         9393 
   19300    1074.4631    15225 9.2425937e-13         5753         9472 
   19400    1077.2897    15363 9.3132376e-13         5812         9551 
   19500    1081.3295    15462 9.3806224e-13         5862         9600 
   19600    1084.7221    15589 9.4516512e-13         5911         9678 
   19700    1088.5442    15714 9.5220862e-13         5963         9751 
   19800     1092.085    15850 9.5953903e-13         6001         9849 
   19900    1095.3128    15942 9.6638474e-13         6036         9906 
   20000    1098.9041    16062 9.7342222e-13         6084         9978 
   20100    1102.3691    16176 9.8032656e-13         6136        10040 
   20200    1106.5369    16278 9.8722283e-13         6180        10098 
   20300    1109.9126    16375 9.9401514e-13         6229        10146 
   20400    1113.8955    16479 1.000864e-12         6280        10199 
   20500    1117.6495    16589 1.007948e-12         6323        10266 
   20600    1121.1896    16710 1.0150886e-12         6370        10340 
   20700    1124.8153    16809 1.0220955e-12         6411        10398 
   20800    1129.0934    16920 1.0290997e-12         6458        10462 
   20900    1132.3741    17055 1.0364065e-12         6510        10545 
   21000    1136.4723    17177 1.0437667e-12         6547        10630 
   21100    1140.3877    17299 1.0509129e-12         6597        10702 
   21200    1144.5995    17420 1.0580699e-12         6650        10770 
   21300    1147.9977    17523 1.0651263e-12         6693        10830 
   21400    1151.7973    17643 1.0723584e-12         6743        10900 
   21500    1155.9433    17756 1.0796623e-12         6776        10980 
   21600    1159.8454    17896 1.0870692e-12         6829        11067 
   21700    1163.1516    18028 1.0945502e-12         6876        11152 
   21800    1167.4657    18134 1.1016831e-12         6922        11212 
   21900    1171.5534    18255 1.1091207e-12         6963        11292 
   22000     1175.953    18380 1.1165234e-12         7007        11373 
   22100    1179.4731    18504 1.123822e-12         7059        11445 
   22200    1184.3258    18630 1.1313884e-12         7099        11531 
   22300    1187.9143    18764 1.1389141e-12         7146        11618 
   22400    1191.9946    18859 1.1460723e-12         7182        11677 
   22500    1195.2427    18965 1.1533715e-12         7224        11741 
   22600    1198.8548    19093 1.1607463e-12         7277        11816 
   22700    1202.8665    19202 1.1681348e-12         7314        11888 
   22800    1207.8684    19328 1.1755591e-12         7365        11963 
   22900    1212.7748    19426 1.1828558e-12         7399        12027 
   23000    1216.6204    19557 1.1904081e-12         7450        12107 
   23100    1221.4709    19676 1.1978345e-12         7500        12176 
   23200    1224.9179    19804 1.2053794e-12         7550        12254 
   23300    1229.1576    19941 1.2128795e-12         7606        12335 
   23400    1234.0291    20057 1.220395e-12         7645        12412 
   23500    1238.2359    20188 1.2280436e-12         7693        12495 
   23600    1242.6856    20318 1.2358765e-12         7731        12587 
   23700    1247.4203    20438 1.2433306e-12         7787        12651 
   23800    1251.3237    20566 1.2508523e-12         7843        12723 
   23900    1255.5946    20685 1.2584616e-12         7885        12800 
   24000    1258.5637    20820 1.2661208e-12         7940        12880 
   24100     1263.839    20929 1.2736036e-12         7983        12946 
   24200      1268.34    21057 1.2813454e-12         8029        13028 
   24300    1272.6397    21185 1.289087e-12         8076        13109 
   24400    1276.5212    21310 1.2968891e-12         8118        13192 
   24500    1280.7757    21441 1.3047118e-12         8164        13277 
   24600    1286.0588    21561 1.3124273e-12         8208        13353 
   24700    1290.4391    21685 1.3200044e-12         8268        13417 
   24800    1295.2557    21818 1.3277684e-12         8320        13498 
   24900    1298.5909    21931 1.3353834e-12         8363        13568 
   25000    1302.4899    22066 1.3430938e-12         8423        13643 
   25100    1306.9685    22221 1.3511538e-12         8479        13742 
   25200     1312.207    22327 1.3587838e-12         8522        13805 
   25300    1317.0865    22430 1.3664471e-12         8560        13870 
   25400     1320.347    22573 1.3745739e-12         8602        13971 
   25500    1325.1999    22696 1.382391e-12         8648        14048 
   25600    1329.1988    22831 1.3904246e-12         8692        14139 
   25700    1334.9972    22965 1.3982653e-12         8751        14214 
   25800    1339.1177    23089 1.4060373e-12         8808        14281 
   25900    1344.1875    23196 1.4137946e-12         8844        14352 
   26000    1348.7268    23314 1.4215674e-12         8896        14418 
   26100    1352.8381    23466 1.4296755e-12         8955        14511 
   26200     1357.934    23611 1.4378626e-12         9002        14609 
   26300    1361.8292    23743 1.4458277e-12         9054        14689 
   26400    1366.2541    23881 1.4540411e-12         9097        14784 
   26500    1370.6311    24028 1.4622279e-12         9148        14880 
   26600     1374.889    24169 1.4703401e-12         9200        14969 
   26700    1379.7629    24286 1.4781164e-12         9256        15030 
   26800    1384.2101    24406 1.4860651e-12         9306        15100 
   26900    1389.3335    24554 1.4941552e-12         9368        15186 
   27000    1393.8257    24690 1.5022482e-12         9421        15269 
   27100    1397.5112    24823 1.510347e-12         9470        15353 
   27200    1402.1702    24965 1.5184659e-12         9528        15437 
   27300    1405.9187    25111 1.5266071e-12         9588        15523 
   27400     1410.305    25227 1.5344346e-12         9645        15582 
   27500    1414.5444    25357 1.5425649e-12         9693        15664 
   27600    1420.2253    25500 1.5508216e-12         9745        15755 
   27700    1423.7361    25640 1.5589573e-12         9808        15832 
   27800    1427.5075    25802 1.567501e-12         9859        15943 
   27900     1432.227    25915 1.5754997e-12         9905        16010 
   28000     1437.889    26040 1.5837449e-12         9948        16092 
   28100    1442.4876    26163 1.5919545e-12         9986        16177 
   28200    1448.0109    26312 1.6003933e-12        10036        16276 
   28300    1452.4366    26445 1.6086228e-12        10087        16358 
   28400    1457.5175    26592 1.6170758e-12        10137        16455 
   28500    1460.8434    26743 1.6255914e-12        10190        16553 
   28600    1466.3047    26883 1.6338388e-12        10255        16628 
   28700    1471.2177    27015 1.6420828e-12        10312        16703 
   28800    1476.5854    27140 1.6504075e-12        10357        16783 
   28900    1482.5123    27276 1.6588095e-12        10405        16871 
   29000    1487.9888    27423 1.6672616e-12        10466        16957 
   29100    1492.6084    27556 1.6755475e-12        10522        17034 
   29200    1497.5274    27676 1.6836828e-12        10580        17096 
   29300    1501.9868    27826 1.6921853e-12        10640        17186 
   29400    1506.8545    27970 1.7007286e-12        10691        17279 
   29500    1510.9494    28115 1.7093076e-12        10740        17375 
   29600    1515.4678    28248 1.7177101e-12        10794        17454 
   29700     1519.066    28371 1.726025e-12        10845        17526 
   29800     1524.236    28525 1.7346389e-12        10903        17622 
   29900    1528.8582    28639 1.7428008e-12        10955        17684 
   30000    1534.5484    28780 1.7512014e-12        11015        17765 
   30100    1539.6442    28939 1.7598743e-12        11080        17859 
   30200    1544.1064    29081 1.7684836e-12        11134        17947 
   30300    1549.1927    29222 1.7771424e-12        11181        18041 
   30400    1554.6079    29364 1.7858136e-12        11228        18136 
   30500     1559.623    29510 1.7945107e-12        11284        18226 
   30600    1563.9075    29632 1.8026805e-12        11331        18301 
   30700    1567.6868    29802 1.8114514e-12        11395        18407 
   30800     1572.978    29945 1.8201059e-12        11452        18493 
   30900    1578.2439    30115 1.8291228e-12        11509        18606 
   31000     1584.134    30236 1.8376915e-12        11551        18685 
   31100    1588.8165    30384 1.8463483e-12        11607        18777 
   31200    1593.0671    30532 1.8548932e-12        11670        18862 
   31300     1597.748    30665 1.8635157e-12        11722        18943 
   31400    1602.7564    30815 1.8721588e-12        11792        19023 
   31500    1608.6124    30944 1.8808044e-12        11843        19101 
   31600     1614.241    31087 1.8895377e-12        11902        19185 
   31700    1618.3841    31228 1.8980529e-12        11949        19279 
   31800    1623.0125    31370 1.9066346e-12        12015        19355 
   31900    1627.8512    31518 1.9153021e-12        12072        19446 
   32000    1632.3308    31647 1.9236979e-12        12120        19527 
   32100    1636.7077    31795 1.9327154e-12        12163        19632 
   32200    1641.4653    31933 1.9415712e-12        12206        19727 
   32300    1645.8073    32104 1.9503052e-12        12269        19835 
   32400     1650.454    32218 1.9588069e-12        12314        19904 
   32500    1655.0346    32350 1.9673217e-12        12370        19980 
   32600    1659.7126    32502 1.976427e-12        12415        20087 
   32700    1664.6939    32668 1.9851497e-12        12489        20179 
   32800    1669.9211    32820 1.9938733e-12        12547        20273 
   32900    1675.1476    32971 2.002904e-12        12598        20373 
   33000    1679.4923    33085 2.0112807e-12        12640        20445 
   33100    1685.9506    33202 2.0198199e-12        12685        20517 
   33200    1691.5073    33358 2.0285678e-12        12749        20609 
   33300    1695.8794    33521 2.0372555e-12        12803        20718 
   33400    1700.8502    33665 2.0460917e-12        12851        20814 
   33500    1704.6728    33815 2.0547271e-12        12909        20906 
   33600    1709.7208    33966 2.0637495e-12        12957        21009 
   33700    1715.4921    34123 2.0729571e-12        13011        21112 
   33800    1719.6955    34270 2.0816852e-12        13077        21193 
   33900    1725.1704    34445 2.0903066e-12        13153        21292 
   34000    1729.9507    34585 2.0988802e-12        13199        21386 
   34100    1733.3166    34721 2.1073966e-12        13263        21458 
   34200    1737.6256    34836 2.115897e-12        13302        21534 
   34300     1742.013    34984 2.1243599e-12        13358        21626 
   34400    1746.4345    35117 2.132693e-12        13403        21714 
   34500    1751.6603    35261 2.1412966e-12        13461        21800 
   34600    1757.0098    35405 2.1500747e-12        13506        21899 
   34700    1761.7702    35551 2.1590891e-12        13559        21992 
   34800    1766.8128    35694 2.1675525e-12        13614        22080 
   34900    1772.7917    35862 2.1762221e-12        13678        22184 
   35000    1778.5018    36006 2.1843022e-12        13737        22269 
   35100    1783.3034    36125 2.1931135e-12        13777        22348 
   35200    1788.1825    36269 2.2018016e-12        13823        22446 
   35300    1793.5009    36390 2.2100368e-12        13871        22519 
   35400    1799.0221    36543 2.2188442e-12        13934        22609 
   35500    1803.8579    36690 2.228043e-12        13990        22700 
   35600    1809.2654    36851 2.2368226e-12        14055        22796 
   35700    1814.6299    37004 2.2454361e-12        14114        22890 
   35800    1819.8923    37163 2.254749e-12        14152        23011 
   35900    1824.3164    37288 2.2632238e-12        14206        23082 
   36000     1830.019    37438 2.2716084e-12        14254        23184 
   36100    1835.2292    37575 2.2802771e-12        14317        23258 
   36200       1840.8    37718 2.2888087e-12        14374        23344 
   36300    1846.5461    37840 2.2977206e-12        14412        23428 
   36400    1851.6045    37979 2.3064152e-12        14457        23522 
   36500    1856.7747    38138 2.3156231e-12        14519        23619 
   36600    1862.9616    38284 2.3242641e-12        14567        23717 
   36700    1868.3736    38471 2.3335601e-12        14642        23829 
   36800    1874.2895    38629 2.3423612e-12        14690        23939 
   36900    1879.3186    38781 2.3508946e-12        14748        24033 
   37000    1883.8278    38941 2.3588191e-12        14817        24124 
   37100    1889.9538    39090 2.3681874e-12        14861        24229 
   37200    1894.2856    39224 2.3760621e-12        14918        24306 
   37300    1899.0883    39375 2.385361e-12        14977        24398 
   37400    1904.1285    39522 2.3940926e-12        15030        24492 
   37500    1909.2177    39683 2.4030306e-12        15101        24582 
   37600     1915.231    39860 2.4115409e-12        15162        24698 
   37700    1921.8724    40003 2.4203409e-12        15204        24799 
   37800    1926.1793    40149 2.4289373e-12        15259        24890 
   37900    1931.0382    40302 2.4386117e-12        15308        24994 
   38000    1937.6136    40427 2.4469064e-12        15360        25067 
   38100    1941.8169    40545 2.4549851e-12        15409        25136 
   38200    1946.4897    40698 2.4640308e-12        15476        25222 
   38300    1952.2464    40833 2.4726348e-12        15524        25309 
   38400    1957.4621    40971 2.4815862e-12        15575        25396 
   38500    1963.0331    41118 2.4898932e-12        15641        25477 
   38600    1969.4667    41284 2.4991407e-12        15693        25591 
   38700    1974.3557    41436 2.5084172e-12        15746        25690 
   38800    1979.4394    41587 2.5170536e-12        15798        25789 
   38900    1984.8591    41748 2.525531e-12        15860        25888 
   39000    1991.0337    41917 2.5347363e-12        15926        25991 
   39100    1997.8871    42054 2.543838e-12        15978        26076 
   39200    2003.3626    42190 2.5526099e-12        16033        26157 
   39300    2008.3011    42320 2.5617491e-12        16082        26238 
   39400      2013.88    42468 2.5709661e-12        16147        26321 
   39500    2018.9491    42653 2.5807543e-12        16217        26436 
   39600    2024.2167    42806 2.5887917e-12        16276        26530 
   39700    2030.5146    42927 2.596607e-12        16328        26599 
   39800    2036.0222    43081 2.6056695e-12        16382        26699 
   39900    2041.7408    43234 2.6148933e-12        16438        26796 
   40000    2046.4506    43391 2.6233286e-12        16491        26900 
Loop time of 2046.45 on 1 procs for 40000 steps with 43391 atoms

Performance: 16887775.338 tau/day, 19.546 timesteps/s
100.0% CPU use with 1 MPI tasks x no OpenMP threads

MPI task timing breakdown:
Section |  min time  |  avg time  |  max time  |%varavg| %total
---------------------------------------------------------------
Pair    | 81.911     | 81.911     | 81.911     |   0.0 |  4.00
Neigh   | 41.335     | 41.335     | 41.335     |   0.0 |  2.02
Comm    | 0.60447    | 0.60447    | 0.60447    |   0.0 |  0.03
Output  | 0.49034    | 0.49034    | 0.49034    |   0.0 |  0.02
Modify  | 1917.5     | 1917.5     | 1917.5     |   0.0 | 93.70
Other   |            | 4.582      |            |       |  0.22

Nlocal:    43391 ave 43391 max 43391 min
Histogram: 1 0 0 0 0 0 0 0 0 0
Nghost:    0 ave 0 max 0 min
Histogram: 1 0 0 0 0 0 0 0 0 0
Neighs:    261744 ave 261744 max 261744 min
Histogram: 1 0 0 0 0 0 0 0 0 0

Total # of neighbors = 261744
Ave neighs/atom = 6.03222
Neighbor list builds = 1301
Dangerous builds = 0

timestep 2.5

unfix k1
unfix kgm
unfix g1
unfix d1
unfix e1

fix s1 all shear 1 v_viscosity v_shearRate v_height zx 0 800000

run 500000
Neighbor list info ...
  3 neighbor list requests
  update every 1 steps, delay 0 steps, check yes
  max neighbors/atom: 5000, page size: 100000
  master list distance cutoff = 1.89359e-06
  ghost atom cutoff = 1.89359e-06
  binsize = 9.46793e-07 -> bins = 212 43 106
Memory usage per processor = 32.276 Mbytes
Step CPU Atoms biomass c_myNtypes[1] c_myNtypes[2] 
   40000            0    43391 2.6233286e-12        16491        26900 
   40100    1.8784459    43389 2.6233069e-12        16491        26898 
   40200     3.924021    43389 2.6233069e-12        16491        26898 
   40300    5.9819269    43389 2.6233069e-12        16491        26898 
   40400    7.9583778    43389 2.6233069e-12        16491        26898 
   40500    9.9515779    43389 2.6233069e-12        16491        26898 
   40600    12.053028    43389 2.6233069e-12        16491        26898 
   40700    14.059555    43389 2.6233069e-12        16491        26898 
   40800    15.907205    43389 2.6233069e-12        16491        26898 
   40900    17.842142    43389 2.6233069e-12        16491        26898 
   41000    19.783887    43388 2.6232887e-12        16491        26897 
   41100    21.528463    43388 2.6232887e-12        16491        26897 
   41200    23.527111    43388 2.6232887e-12        16491        26897 
   41300    25.445965    43388 2.6232887e-12        16491        26897 
   41400    27.466773    43388 2.6232887e-12        16491        26897 
   41500    29.385125    43388 2.6232887e-12        16491        26897 
   41600    31.413989    43388 2.6232887e-12        16491        26897 
   41700    33.236889    43388 2.6232887e-12        16491        26897 
   41800    35.165757    43388 2.6232887e-12        16491        26897 
   41900    37.099044    43388 2.6232887e-12        16491        26897 
   42000    38.991589    43388 2.6232887e-12        16491        26897 
   42100    40.938914    43388 2.6232887e-12        16491        26897 
   42200    42.777132    43388 2.6232887e-12        16491        26897 
   42300    44.613557    43388 2.6232887e-12        16491        26897 
   42400    46.553692    43388 2.6232887e-12        16491        26897 
   42500    48.493658    43388 2.6232887e-12        16491        26897 
   42600    50.438606    43388 2.6232887e-12        16491        26897 
   42700    52.286711    43388 2.6232887e-12        16491        26897 
   42800    54.139413    43388 2.6232887e-12        16491        26897 
   42900    55.986579    43388 2.6232887e-12        16491        26897 
   43000    57.836556    43388 2.6232887e-12        16491        26897 
   43100    59.798852    43388 2.6232887e-12        16491        26897 
   43200    61.734164    43388 2.6232887e-12        16491        26897 
   43300     63.54436    43388 2.6232887e-12        16491        26897 
   43400    65.327984    43388 2.6232887e-12        16491        26897 
   43500    67.203971    43388 2.6232887e-12        16491        26897 
   43600    68.990283    43388 2.6232887e-12        16491        26897 
   43700    70.847753    43388 2.6232887e-12        16491        26897 
   43800    72.699519    43388 2.6232887e-12        16491        26897 
   43900    74.553766    43388 2.6232887e-12        16491        26897 
   44000     76.46601    43388 2.6232887e-12        16491        26897 
   44100    78.437183    43388 2.6232887e-12        16491        26897 
   44200    80.302987    43388 2.6232887e-12        16491        26897 
   44300    82.164431    43388 2.6232887e-12        16491        26897 
   44400    84.138323    43388 2.6232887e-12        16491        26897 
   44500     86.00231    43388 2.6232887e-12        16491        26897 
   44600    87.869402    43388 2.6232887e-12        16491        26897 
   44700    89.853053    43388 2.6232887e-12        16491        26897 
   44800    91.728874    43388 2.6232887e-12        16491        26897 
   44900    93.712919    43388 2.6232887e-12        16491        26897 
   45000     95.62494    43388 2.6232887e-12        16491        26897 
   45100    97.525569    43388 2.6232887e-12        16491        26897 
   45200    99.436084    43388 2.6232887e-12        16491        26897 
   45300     101.2461    43388 2.6232887e-12        16491        26897 
   45400    103.26992    43388 2.6232887e-12        16491        26897 
   45500    105.19745    43388 2.6232887e-12        16491        26897 
   45600    107.09172    43388 2.6232887e-12        16491        26897 
   45700    109.08822    43388 2.6232887e-12        16491        26897 
   45800    111.00926    43388 2.6232887e-12        16491        26897 
   45900     112.7276    43388 2.6232887e-12        16491        26897 
   46000     114.6017    43388 2.6232887e-12        16491        26897 
   46100    116.53127    43388 2.6232887e-12        16491        26897 
   46200    118.41054    43388 2.6232887e-12        16491        26897 
   46300    120.30407    43388 2.6232887e-12        16491        26897 
   46400    122.36459    43388 2.6232887e-12        16491        26897 
   46500    124.15929    43388 2.6232887e-12        16491        26897 
   46600     126.0583    43388 2.6232887e-12        16491        26897 
   46700    127.94261    43388 2.6232887e-12        16491        26897 
   46800    129.83699    43388 2.6232887e-12        16491        26897 
   46900    131.61722    43388 2.6232887e-12        16491        26897 
   47000    133.59459    43388 2.6232887e-12        16491        26897 
   47100    135.36487    43388 2.6232887e-12        16491        26897 
   47200    137.25214    43388 2.6232887e-12        16491        26897 
   47300    139.12521    43388 2.6232887e-12        16491        26897 
   47400    141.10324    43388 2.6232887e-12        16491        26897 
   47500    142.88047    43388 2.6232887e-12        16491        26897 
   47600    144.76717    43388 2.6232887e-12        16491        26897 
   47700    146.64565    43388 2.6232887e-12        16491        26897 
   47800    148.52132    43388 2.6232887e-12        16491        26897 
   47900    150.39799    43388 2.6232887e-12        16491        26897 
   48000    152.32748    43388 2.6232887e-12        16491        26897 
   48100    154.21735    43388 2.6232887e-12        16491        26897 
   48200    156.09694    43388 2.6232887e-12        16491        26897 
   48300    157.93477    43388 2.6232887e-12        16491        26897 
   48400    159.74737    43388 2.6232887e-12        16491        26897 
   48500    161.58407    43388 2.6232887e-12        16491        26897 
   48600    163.43179    43388 2.6232887e-12        16491        26897 
   48700    165.20299    43388 2.6232887e-12        16491        26897 
   48800    167.18744    43388 2.6232887e-12        16491        26897 
   48900    169.07189    43388 2.6232887e-12        16491        26897 
   49000    170.95751    43388 2.6232887e-12        16491        26897 
   49100    172.85192    43388 2.6232887e-12        16491        26897 
   49200     174.7432    43388 2.6232887e-12        16491        26897 
   49300     176.6515    43388 2.6232887e-12        16491        26897 
   49400    178.53983    43388 2.6232887e-12        16491        26897 
   49500    180.42955    43388 2.6232887e-12        16491        26897 
   49600    182.35144    43388 2.6232887e-12        16491        26897 
   49700    184.24307    43388 2.6232887e-12        16491        26897 
   49800    186.05001    43388 2.6232887e-12        16491        26897 
   49900    188.08104    43388 2.6232887e-12        16491        26897 
   50000    190.06838    43388 2.6232887e-12        16491        26897 
   50100    191.99242    43388 2.6232887e-12        16491        26897 
   50200    193.90789    43388 2.6232887e-12        16491        26897 
   50300    195.81349    43388 2.6232887e-12        16491        26897 
   50400    197.70552    43388 2.6232887e-12        16491        26897 
   50500    199.72024    43388 2.6232887e-12        16491        26897 
   50600    201.53914    43388 2.6232887e-12        16491        26897 
   50700    203.34947    43388 2.6232887e-12        16491        26897 
   50800    205.22542    43388 2.6232887e-12        16491        26897 
   50900    206.98106    43388 2.6232887e-12        16491        26897 
   51000    208.84421    43388 2.6232887e-12        16491        26897 
   51100    210.88118    43388 2.6232887e-12        16491        26897 
   51200    212.84777    43388 2.6232887e-12        16491        26897 
   51300    214.67566    43388 2.6232887e-12        16491        26897 
   51400    216.57355    43388 2.6232887e-12        16491        26897 
   51500     218.3715    43388 2.6232887e-12        16491        26897 
   51600    220.27697    43388 2.6232887e-12        16491        26897 
   51700    222.17395    43388 2.6232887e-12        16491        26897 
   51800     223.9718    43388 2.6232887e-12        16491        26897 
   51900     225.8742    43388 2.6232887e-12        16491        26897 
   52000    227.72793    43388 2.6232887e-12        16491        26897 
   52100    229.63684    43388 2.6232887e-12        16491        26897 
   52200    231.58241    43388 2.6232887e-12        16491        26897 
   52300    233.57608    43388 2.6232887e-12        16491        26897 
   52400    235.69663    43388 2.6232887e-12        16491        26897 
   52500    237.53055    43388 2.6232887e-12        16491        26897 
   52600    239.63337    43388 2.6232887e-12        16491        26897 
   52700    241.51409    43388 2.6232887e-12        16491        26897 
   52800    243.53607    43388 2.6232887e-12        16491        26897 
   52900    245.44543    43388 2.6232887e-12        16491        26897 
   53000    247.50512    43388 2.6232887e-12        16491        26897 
   53100    249.58298    43388 2.6232887e-12        16491        26897 
   53200    251.53324    43388 2.6232887e-12        16491        26897 
   53300    253.33537    43388 2.6232887e-12        16491        26897 
   53400    255.28365    43388 2.6232887e-12        16491        26897 
   53500    257.18493    43388 2.6232887e-12        16491        26897 
   53600    259.06909    43388 2.6232887e-12        16491        26897 
   53700    261.06876    43388 2.6232887e-12        16491        26897 
   53800     263.0344    43388 2.6232887e-12        16491        26897 
   53900    264.89216    43388 2.6232887e-12        16491        26897 
   54000    266.88501    43388 2.6232887e-12        16491        26897 
   54100    268.80757    43388 2.6232887e-12        16491        26897 
   54200    270.75409    43388 2.6232887e-12        16491        26897 
   54300    272.58768    43388 2.6232887e-12        16491        26897 
   54400    274.51812    43388 2.6232887e-12        16491        26897 
   54500     276.4467    43388 2.6232887e-12        16491        26897 
   54600    278.38219    43388 2.6232887e-12        16491        26897 
   54700    280.32665    43388 2.6232887e-12        16491        26897 
   54800    282.19702    43388 2.6232887e-12        16491        26897 
   54900    284.03012    43388 2.6232887e-12        16491        26897 
   55000    285.95741    43388 2.6232887e-12        16491        26897 
   55100    287.88868    43388 2.6232887e-12        16491        26897 
   55200     289.8104    43388 2.6232887e-12        16491        26897 
   55300    291.81911    43388 2.6232887e-12        16491        26897 
   55400    293.80425    43388 2.6232887e-12        16491        26897 
   55500     295.8864    43388 2.6232887e-12        16491        26897 
   55600    297.84874    43388 2.6232887e-12        16491        26897 
   55700    299.87418    43388 2.6232887e-12        16491        26897 
   55800    301.80202    43388 2.6232887e-12        16491        26897 
   55900    303.68875    43388 2.6232887e-12        16491        26897 
   56000    305.54141    43388 2.6232887e-12        16491        26897 
   56100    307.47528    43388 2.6232887e-12        16491        26897 
   56200    309.33771    43388 2.6232887e-12        16491        26897 
   56300    311.30169    43388 2.6232887e-12        16491        26897 
   56400    313.23302    43388 2.6232887e-12        16491        26897 
   56500    315.08033    43388 2.6232887e-12        16491        26897 
   56600    317.04229    43388 2.6232887e-12        16491        26897 
   56700     318.9739    43388 2.6232887e-12        16491        26897 
   56800    321.00327    43388 2.6232887e-12        16491        26897 
   56900    322.98567    43388 2.6232887e-12        16491        26897 
   57000    324.97832    43388 2.6232887e-12        16491        26897 
   57100    326.95284    43388 2.6232887e-12        16491        26897 
   57200    328.81241    43388 2.6232887e-12        16491        26897 
   57300    330.73229    43388 2.6232887e-12        16491        26897 
   57400    332.65369    43388 2.6232887e-12        16491        26897 
   57500     334.5735    43388 2.6232887e-12        16491        26897 
   57600    336.49013    43388 2.6232887e-12        16491        26897 
   57700    338.40861    43388 2.6232887e-12        16491        26897 
   57800    340.22503    43388 2.6232887e-12        16491        26897 
   57900    342.14201    43388 2.6232887e-12        16491        26897 
   58000     344.1131    43388 2.6232887e-12        16491        26897 
   58100    346.03954    43388 2.6232887e-12        16491        26897 
   58200    347.85295    43388 2.6232887e-12        16491        26897 
   58300    349.73541    43388 2.6232887e-12        16491        26897 
   58400    351.68721    43388 2.6232887e-12        16491        26897 
   58500    353.43369    43388 2.6232887e-12        16491        26897 
   58600    355.27764    43388 2.6232887e-12        16491        26897 
   58700    357.15516    43388 2.6232887e-12        16491        26897 
   58800    358.97349    43388 2.6232887e-12        16491        26897 
   58900    360.89308    43388 2.6232887e-12        16491        26897 
   59000    362.82718    43388 2.6232887e-12        16491        26897 
   59100    364.75986    43388 2.6232887e-12        16491        26897 
   59200    366.68589    43388 2.6232887e-12        16491        26897 
   59300    368.61889    43388 2.6232887e-12        16491        26897 
   59400    370.56389    43388 2.6232887e-12        16491        26897 
   59500     372.3822    43388 2.6232887e-12        16491        26897 
   59600    374.30892    43388 2.6232887e-12        16491        26897 
   59700     376.2361    43388 2.6232887e-12        16491        26897 
   59800    378.05377    43388 2.6232887e-12        16491        26897 
   59900    379.97914    43388 2.6232887e-12        16491        26897 
   60000     381.8524    43388 2.6232887e-12        16491        26897 
   60100    383.88896    43388 2.6232887e-12        16491        26897 
   60200    385.70715    43388 2.6232887e-12        16491        26897 
   60300    387.63127    43388 2.6232887e-12        16491        26897 
   60400    389.65634    43388 2.6232887e-12        16491        26897 
   60500    391.57748    43388 2.6232887e-12        16491        26897 
   60600    393.50575    43388 2.6232887e-12        16491        26897 
   60700     395.3315    43388 2.6232887e-12        16491        26897 
   60800     397.2213    43388 2.6232887e-12        16491        26897 
   60900     398.9709    43388 2.6232887e-12        16491        26897 
   61000    400.71659    43388 2.6232887e-12        16491        26897 
   61100     402.5841    43388 2.6232887e-12        16491        26897 
   61200    404.46422    43388 2.6232887e-12        16491        26897 
   61300    406.38792    43388 2.6232887e-12        16491        26897 
   61400    408.31552    43388 2.6232887e-12        16491        26897 
   61500    410.24099    43388 2.6232887e-12        16491        26897 
   61600    412.26938    43388 2.6232887e-12        16491        26897 
   61700    414.29893    43388 2.6232887e-12        16491        26897 
   61800    416.23085    43388 2.6232887e-12        16491        26897 
   61900    418.05466    43388 2.6232887e-12        16491        26897 
   62000    419.93672    43388 2.6232887e-12        16491        26897 
   62100    421.87798    43388 2.6232887e-12        16491        26897 
   62200    423.88149    43388 2.6232887e-12        16491        26897 
   62300    425.81045    43388 2.6232887e-12        16491        26897 
   62400    427.74045    43388 2.6232887e-12        16491        26897 
   62500    429.67471    43388 2.6232887e-12        16491        26897 
   62600    431.60942    43388 2.6232887e-12        16491        26897 
   62700    433.54384    43388 2.6232887e-12        16491        26897 
   62800    435.37578    43388 2.6232887e-12        16491        26897 
   62900    437.41028    43388 2.6232887e-12        16491        26897 
   63000    439.34111    43388 2.6232887e-12        16491        26897 
   63100    441.16898    43388 2.6232887e-12        16491        26897 
   63200    443.11142    43388 2.6232887e-12        16491        26897 
   63300    445.07718    43388 2.6232887e-12        16491        26897 
   63400    446.82648    43388 2.6232887e-12        16491        26897 
   63500    448.67685    43388 2.6232887e-12        16491        26897 
   63600    450.52662    43388 2.6232887e-12        16491        26897 
   63700      452.554    43388 2.6232887e-12        16491        26897 
   63800    454.38623    43388 2.6232887e-12        16491        26897 
   63900    456.39238    43388 2.6232887e-12        16491        26897 
   64000    458.37804    43388 2.6232887e-12        16491        26897 
   64100     460.3273    43388 2.6232887e-12        16491        26897 
   64200       462.26    43388 2.6232887e-12        16491        26897 
   64300      464.092    43388 2.6232887e-12        16491        26897 
   64400    466.02728    43388 2.6232887e-12        16491        26897 
   64500    468.06565    43388 2.6232887e-12        16491        26897 
   64600    469.99707    43388 2.6232887e-12        16491        26897 
   64700    471.92933    43388 2.6232887e-12        16491        26897 
   64800    473.86722    43388 2.6232887e-12        16491        26897 
   64900      475.802    43388 2.6232887e-12        16491        26897 
   65000    477.74009    43388 2.6232887e-12        16491        26897 
   65100    479.78894    43388 2.6232887e-12        16491        26897 
   65200    481.82285    43388 2.6232887e-12        16491        26897 
   65300    483.78937    43388 2.6232887e-12        16491        26897 
   65400    485.75718    43388 2.6232887e-12        16491        26897 
   65500     487.7484    43388 2.6232887e-12        16491        26897 
   65600    489.82699    43388 2.6232887e-12        16491        26897 
   65700    491.73344    43388 2.6232887e-12        16491        26897 
   65800    493.68889    43388 2.6232887e-12        16491        26897 
   65900    495.57976    43388 2.6232887e-12        16491        26897 
   66000    497.64482    43388 2.6232887e-12        16491        26897 
   66100    499.57436    43388 2.6232887e-12        16491        26897 
   66200    501.54407    43388 2.6232887e-12        16491        26897 
   66300    503.57398    43388 2.6232887e-12        16491        26897 
   66400    505.60333    43388 2.6232887e-12        16491        26897 
   66500    507.58691    43388 2.6232887e-12        16491        26897 
   66600     509.5594    43388 2.6232887e-12        16491        26897 
   66700    511.70774    43388 2.6232887e-12        16491        26897 
   66800    513.65946    43388 2.6232887e-12        16491        26897 
   66900    515.72346    43388 2.6232887e-12        16491        26897 
   67000    517.68308    43388 2.6232887e-12        16491        26897 
   67100    519.75217    43388 2.6232887e-12        16491        26897 
   67200    521.69389    43388 2.6232887e-12        16491        26897 
   67300    523.66085    43388 2.6232887e-12        16491        26897 
   67400    525.72415    43388 2.6232887e-12        16491        26897 
   67500    527.74841    43388 2.6232887e-12        16491        26897 
   67600    529.93709    43388 2.6232887e-12        16491        26897 
   67700    532.04079    43388 2.6232887e-12        16491        26897 
   67800    534.14742    43388 2.6232887e-12        16491        26897 
   67900    536.25966    43388 2.6232887e-12        16491        26897 
   68000    538.48993    43388 2.6232887e-12        16491        26897 
   68100    540.53946    43388 2.6232887e-12        16491        26897 
   68200    542.68061    43388 2.6232887e-12        16491        26897 
   68300    544.89844    43388 2.6232887e-12        16491        26897 
   68400    547.07226    43388 2.6232887e-12        16491        26897 
   68500    549.28636    43388 2.6232887e-12        16491        26897 
   68600    551.31088    43388 2.6232887e-12        16491        26897 
   68700    553.38267    43388 2.6232887e-12        16491        26897 
   68800    555.38363    43388 2.6232887e-12        16491        26897 
   68900    557.43859    43388 2.6232887e-12        16491        26897 
   69000    559.44286    43388 2.6232887e-12        16491        26897 
   69100    561.44874    43388 2.6232887e-12        16491        26897 
   69200    563.57346    43388 2.6232887e-12        16491        26897 
   69300    565.54597    43388 2.6232887e-12        16491        26897 
   69400    567.57087    43388 2.6232887e-12        16491        26897 
   69500    569.79623    43388 2.6232887e-12        16491        26897 
   69600    572.11542    43388 2.6232887e-12        16491        26897 
   69700    574.62829    43388 2.6232887e-12        16491        26897 
   69800    577.05855    43388 2.6232887e-12        16491        26897 
   69900    579.47072    43388 2.6232887e-12        16491        26897 
   70000    581.78056    43388 2.6232887e-12        16491        26897 
   70100    584.13036    43388 2.6232887e-12        16491        26897 
   70200    586.48637    43388 2.6232887e-12        16491        26897 
   70300    588.82129    43388 2.6232887e-12        16491        26897 
   70400    591.17608    43388 2.6232887e-12        16491        26897 
   70500    593.31931    43388 2.6232887e-12        16491        26897 
   70600     595.5713    43388 2.6232887e-12        16491        26897 
   70700    597.71601    43388 2.6232887e-12        16491        26897 
   70800    599.95662    43388 2.6232887e-12        16491        26897 
   70900     602.2916    43388 2.6232887e-12        16491        26897 
   71000    604.59615    43388 2.6232887e-12        16491        26897 
   71100    606.81494    43388 2.6232887e-12        16491        26897 
   71200    608.93079    43388 2.6232887e-12        16491        26897 
   71300    611.00028    43388 2.6232887e-12        16491        26897 
   71400    613.00517    43388 2.6232887e-12        16491        26897 
   71500    614.96847    43388 2.6232887e-12        16491        26897 
   71600    616.81641    43388 2.6232887e-12        16491        26897 
   71700     618.8718    43388 2.6232887e-12        16491        26897 
   71800    620.83983    43388 2.6232887e-12        16491        26897 
   71900    622.79577    43388 2.6232887e-12        16491        26897 
   72000     624.9031    43388 2.6232887e-12        16491        26897 
   72100    626.91938    43388 2.6232887e-12        16491        26897 
   72200    629.00982    43388 2.6232887e-12        16491        26897 
   72300    631.12791    43388 2.6232887e-12        16491        26897 
   72400    633.12651    43388 2.6232887e-12        16491        26897 
   72500    635.23531    43388 2.6232887e-12        16491        26897 
   72600    637.20945    43388 2.6232887e-12        16491        26897 
   72700    639.25697    43388 2.6232887e-12        16491        26897 
   72800    641.31233    43388 2.6232887e-12        16491        26897 
   72900    643.19662    43388 2.6232887e-12        16491        26897 
   73000    645.07081    43388 2.6232887e-12        16491        26897 
   73100    647.06196    43388 2.6232887e-12        16491        26897 
   73200    649.07583    43388 2.6232887e-12        16491        26897 
   73300    651.04104    43388 2.6232887e-12        16491        26897 
   73400    653.00076    43388 2.6232887e-12        16491        26897 
   73500     655.0555    43388 2.6232887e-12        16491        26897 
   73600    657.01585    43388 2.6232887e-12        16491        26897 
   73700    658.99912    43388 2.6232887e-12        16491        26897 
   73800    661.08075    43388 2.6232887e-12        16491        26897 
   73900    663.08795    43388 2.6232887e-12        16491        26897 
   74000    665.26865    43388 2.6232887e-12        16491        26897 
   74100    667.29029    43388 2.6232887e-12        16491        26897 
   74200    669.44594    43388 2.6232887e-12        16491        26897 
   74300    671.48695    43388 2.6232887e-12        16491        26897 
   74400    673.61619    43388 2.6232887e-12        16491        26897 
   74500    675.67804    43388 2.6232887e-12        16491        26897 
   74600    677.63575    43388 2.6232887e-12        16491        26897 
   74700    679.71354    43388 2.6232887e-12        16491        26897 
   74800     681.7815    43388 2.6232887e-12        16491        26897 
   74900    683.84208    43388 2.6232887e-12        16491        26897 
   75000    685.80607    43388 2.6232887e-12        16491        26897 
   75100    687.76847    43388 2.6232887e-12        16491        26897 
   75200     689.7634    43388 2.6232887e-12        16491        26897 
   75300    691.74362    43388 2.6232887e-12        16491        26897 
   75400    693.63376    43388 2.6232887e-12        16491        26897 
   75500     695.6229    43388 2.6232887e-12        16491        26897 
   75600    697.59648    43388 2.6232887e-12        16491        26897 
   75700    699.66414    43388 2.6232887e-12        16491        26897 
   75800    701.64004    43388 2.6232887e-12        16491        26897 
   75900    703.72337    43388 2.6232887e-12        16491        26897 
   76000    705.94408    43388 2.6232887e-12        16491        26897 
   76100    708.02083    43388 2.6232887e-12        16491        26897 
   76200    710.08469    43388 2.6232887e-12        16491        26897 
   76300    712.15355    43388 2.6232887e-12        16491        26897 
   76400    714.12789    43388 2.6232887e-12        16491        26897 
   76500    716.19236    43388 2.6232887e-12        16491        26897 
   76600    718.27448    43388 2.6232887e-12        16491        26897 
   76700    720.33106    43388 2.6232887e-12        16491        26897 
   76800    722.42665    43388 2.6232887e-12        16491        26897 
   76900    724.48542    43388 2.6232887e-12        16491        26897 
   77000    726.54753    43388 2.6232887e-12        16491        26897 
   77100     728.7249    43388 2.6232887e-12        16491        26897 
   77200    730.78229    43388 2.6232887e-12        16491        26897 
   77300    732.85404    43388 2.6232887e-12        16491        26897 
   77400    734.81923    43388 2.6232887e-12        16491        26897 
   77500     736.8015    43388 2.6232887e-12        16491        26897 
   77600    738.78134    43388 2.6232887e-12        16491        26897 
   77700     740.7614    43388 2.6232887e-12        16491        26897 
   77800    742.74473    43388 2.6232887e-12        16491        26897 
   77900    744.81087    43388 2.6232887e-12        16491        26897 
   78000    746.83896    43388 2.6232887e-12        16491        26897 
   78100    748.92606    43388 2.6232887e-12        16491        26897 
   78200    750.99761    43388 2.6232887e-12        16491        26897 
   78300    753.06088    43388 2.6232887e-12        16491        26897 
   78400    755.03444    43388 2.6232887e-12        16491        26897 
   78500     757.1058    43388 2.6232887e-12        16491        26897 
   78600    759.17691    43388 2.6232887e-12        16491        26897 
   78700    761.24877    43388 2.6232887e-12        16491        26897 
   78800    763.21773    43388 2.6232887e-12        16491        26897 
   78900    765.29746    43388 2.6232887e-12        16491        26897 
   79000    767.25325    43388 2.6232887e-12        16491        26897 
   79100    769.23935    43388 2.6232887e-12        16491        26897 
   79200    771.31187    43388 2.6232887e-12        16491        26897 
   79300    773.27549    43388 2.6232887e-12        16491        26897 
   79400    775.24418    43388 2.6232887e-12        16491        26897 
   79500    777.31217    43388 2.6232887e-12        16491        26897 
   79600    779.28817    43388 2.6232887e-12        16491        26897 
   79700    781.36529    43388 2.6232887e-12        16491        26897 
   79800    783.29328    43388 2.6232887e-12        16491        26897 
   79900    785.28984    43388 2.6232887e-12        16491        26897 
   80000    787.33794    43388 2.6232887e-12        16491        26897 
   80100    789.33677    43388 2.6232887e-12        16491        26897 
   80200    791.31121    43388 2.6232887e-12        16491        26897 
   80300    793.36956    43388 2.6232887e-12        16491        26897 
   80400    795.43272    43388 2.6232887e-12        16491        26897 
   80500    797.42264    43388 2.6232887e-12        16491        26897 
   80600    799.38643    43388 2.6232887e-12        16491        26897 
   80700    801.55763    43388 2.6232887e-12        16491        26897 
   80800    803.61863    43388 2.6232887e-12        16491        26897 
   80900    805.59302    43388 2.6232887e-12        16491        26897 
   81000    807.77128    43388 2.6232887e-12        16491        26897 
   81100    809.87092    43388 2.6232887e-12        16491        26897 
   81200    811.83294    43388 2.6232887e-12        16491        26897 
   81300    813.91097    43388 2.6232887e-12        16491        26897 
   81400    815.98468    43388 2.6232887e-12        16491        26897 
   81500    818.05983    43388 2.6232887e-12        16491        26897 
   81600    820.12705    43388 2.6232887e-12        16491        26897 
   81700    822.11056    43388 2.6232887e-12        16491        26897 
   81800    824.27763    43388 2.6232887e-12        16491        26897 
   81900    826.36348    43388 2.6232887e-12        16491        26897 
   82000    828.47998    43388 2.6232887e-12        16491        26897 
   82100     830.4903    43388 2.6232887e-12        16491        26897 
   82200    832.37355    43388 2.6232887e-12        16491        26897 
   82300    834.36278    43388 2.6232887e-12        16491        26897 
   82400    836.36187    43388 2.6232887e-12        16491        26897 
   82500    838.41971    43388 2.6232887e-12        16491        26897 
   82600    840.38782    43388 2.6232887e-12        16491        26897 
   82700    842.49494    43388 2.6232887e-12        16491        26897 
   82800    844.47008    43388 2.6232887e-12        16491        26897 
   82900    846.53894    43388 2.6232887e-12        16491        26897 
   83000    848.61879    43388 2.6232887e-12        16491        26897 
   83100    850.80696    43388 2.6232887e-12        16491        26897 
   83200    852.86314    43388 2.6232887e-12        16491        26897 
   83300    854.84105    43388 2.6232887e-12        16491        26897 
   83400    856.90281    43388 2.6232887e-12        16491        26897 
   83500    858.96549    43388 2.6232887e-12        16491        26897 
   83600    861.04719    43388 2.6232887e-12        16491        26897 
   83700     863.1076    43388 2.6232887e-12        16491        26897 
   83800     865.1774    43388 2.6232887e-12        16491        26897 
   83900    867.27103    43388 2.6232887e-12        16491        26897 
   84000    869.27671    43388 2.6232887e-12        16491        26897 
   84100    871.36961    43388 2.6232887e-12        16491        26897 
   84200    873.33268    43388 2.6232887e-12        16491        26897 
   84300    875.40273    43388 2.6232887e-12        16491        26897 
   84400     877.2876    43388 2.6232887e-12        16491        26897 
   84500    879.26982    43388 2.6232887e-12        16491        26897 
   84600    881.15027    43388 2.6232887e-12        16491        26897 
   84700    883.13575    43388 2.6232887e-12        16491        26897 
   84800    885.20822    43388 2.6232887e-12        16491        26897 
   84900    887.18352    43388 2.6232887e-12        16491        26897 
   85000    889.36247    43388 2.6232887e-12        16491        26897 
   85100    891.54619    43388 2.6232887e-12        16491        26897 
   85200    893.51401    43388 2.6232887e-12        16491        26897 
   85300    895.66761    43388 2.6232887e-12        16491        26897 
   85400    897.74967    43388 2.6232887e-12        16491        26897 
   85500    899.81419    43388 2.6232887e-12        16491        26897 
   85600     902.0031    43388 2.6232887e-12        16491        26897 
   85700    904.08577    43388 2.6232887e-12        16491        26897 
   85800    906.16044    43388 2.6232887e-12        16491        26897 
   85900    908.23646    43388 2.6232887e-12        16491        26897 
   86000    910.37694    43388 2.6232887e-12        16491        26897 
   86100    912.46463    43388 2.6232887e-12        16491        26897 
   86200    914.54571    43388 2.6232887e-12        16491        26897 
   86300    916.62336    43388 2.6232887e-12        16491        26897 
   86400    918.71236    43388 2.6232887e-12        16491        26897 
   86500    920.66931    43388 2.6232887e-12        16491        26897 
   86600    922.76214    43388 2.6232887e-12        16491        26897 
   86700     924.6661    43388 2.6232887e-12        16491        26897 
   86800    926.66571    43388 2.6232887e-12        16491        26897 
   86900    928.56718    43388 2.6232887e-12        16491        26897 
   87000    930.55283    43388 2.6232887e-12        16491        26897 
   87100    932.54984    43388 2.6232887e-12        16491        26897 
   87200    934.61614    43388 2.6232887e-12        16491        26897 
   87300    936.69645    43388 2.6232887e-12        16491        26897 
   87400    938.76557    43388 2.6232887e-12        16491        26897 
   87500    940.86622    43388 2.6232887e-12        16491        26897 
   87600    942.92904    43388 2.6232887e-12        16491        26897 
   87700    945.14397    43388 2.6232887e-12        16491        26897 
   87800    947.24967    43388 2.6232887e-12        16491        26897 
   87900     949.2609    43388 2.6232887e-12        16491        26897 
   88000    951.48826    43388 2.6232887e-12        16491        26897 
   88100    953.63568    43388 2.6232887e-12        16491        26897 
   88200    955.66759    43388 2.6232887e-12        16491        26897 
   88300    957.84577    43388 2.6232887e-12        16491        26897 
   88400    960.08161    43388 2.6232887e-12        16491        26897 
   88500    962.14885    43388 2.6232887e-12        16491        26897 
   88600    964.38389    43388 2.6232887e-12        16491        26897 
   88700    966.59157    43388 2.6232887e-12        16491        26897 
   88800    968.83579    43388 2.6232887e-12        16491        26897 
   88900    971.01712    43388 2.6232887e-12        16491        26897 
   89000    973.07914    43388 2.6232887e-12        16491        26897 
   89100     975.1565    43388 2.6232887e-12        16491        26897 
   89200    977.24009    43388 2.6232887e-12        16491        26897 
   89300     979.3857    43388 2.6232887e-12        16491        26897 
   89400    981.54777    43388 2.6232887e-12        16491        26897 
   89500    983.75747    43388 2.6232887e-12        16491        26897 
   89600    985.84636    43388 2.6232887e-12        16491        26897 
   89700    988.09848    43388 2.6232887e-12        16491        26897 
   89800    990.23433    43388 2.6232887e-12        16491        26897 
   89900    992.24732    43388 2.6232887e-12        16491        26897 
   90000    994.45906    43388 2.6232887e-12        16491        26897 
   90100    996.55182    43388 2.6232887e-12        16491        26897 
   90200    998.64143    43388 2.6232887e-12        16491        26897 
   90300    1000.8784    43388 2.6232887e-12        16491        26897 
   90400    1003.1249    43388 2.6232887e-12        16491        26897 
   90500    1005.4609    43388 2.6232887e-12        16491        26897 
   90600    1007.6149    43388 2.6232887e-12        16491        26897 
   90700    1009.7492    43388 2.6232887e-12        16491        26897 
   90800    1011.8606    43388 2.6232887e-12        16491        26897 
   90900    1013.9934    43388 2.6232887e-12        16491        26897 
   91000    1016.2498    43388 2.6232887e-12        16491        26897 
   91100    1018.4476    43388 2.6232887e-12        16491        26897 
   91200    1020.5631    43388 2.6232887e-12        16491        26897 
   91300    1022.7221    43388 2.6232887e-12        16491        26897 
   91400    1024.8136    43388 2.6232887e-12        16491        26897 
   91500    1026.8766    43388 2.6232887e-12        16491        26897 
   91600    1029.0123    43388 2.6232887e-12        16491        26897 
   91700    1031.1457    43388 2.6232887e-12        16491        26897 
   91800    1033.2939    43388 2.6232887e-12        16491        26897 
   91900    1035.4194    43388 2.6232887e-12        16491        26897 
   92000    1037.5744    43388 2.6232887e-12        16491        26897 
   92100    1039.6401    43388 2.6232887e-12        16491        26897 
   92200    1041.7858    43388 2.6232887e-12        16491        26897 
   92300    1043.9433    43388 2.6232887e-12        16491        26897 
   92400    1046.2422    43388 2.6232887e-12        16491        26897 
   92500    1048.4753    43388 2.6232887e-12        16491        26897 
   92600     1050.673    43388 2.6232887e-12        16491        26897 
   92700    1052.8383    43388 2.6232887e-12        16491        26897 
   92800    1055.0629    43388 2.6232887e-12        16491        26897 
   92900     1057.203    43388 2.6232887e-12        16491        26897 
   93000    1059.3276    43388 2.6232887e-12        16491        26897 
   93100    1061.5246    43388 2.6232887e-12        16491        26897 
   93200    1063.7507    43388 2.6232887e-12        16491        26897 
   93300    1065.8757    43388 2.6232887e-12        16491        26897 
   93400    1068.0911    43388 2.6232887e-12        16491        26897 
   93500    1070.1965    43388 2.6232887e-12        16491        26897 
   93600    1072.2672    43388 2.6232887e-12        16491        26897 
   93700    1074.3112    43388 2.6232887e-12        16491        26897 
   93800     1076.306    43388 2.6232887e-12        16491        26897 
   93900    1078.3721    43388 2.6232887e-12        16491        26897 
   94000     1080.618    43388 2.6232887e-12        16491        26897 
   94100    1082.9029    43388 2.6232887e-12        16491        26897 
   94200    1085.1136    43388 2.6232887e-12        16491        26897 
   94300    1087.2471    43388 2.6232887e-12        16491        26897 
   94400    1089.3406    43388 2.6232887e-12        16491        26897 
   94500    1091.5553    43388 2.6232887e-12        16491        26897 
   94600    1093.6971    43388 2.6232887e-12        16491        26897 
   94700    1095.8548    43388 2.6232887e-12        16491        26897 
   94800    1098.0212    43388 2.6232887e-12        16491        26897 
   94900    1100.1604    43388 2.6232887e-12        16491        26897 
   95000    1102.3476    43388 2.6232887e-12        16491        26897 
   95100    1104.5544    43388 2.6232887e-12        16491        26897 
   95200    1106.6607    43388 2.6232887e-12        16491        26897 
   95300    1108.7608    43388 2.6232887e-12        16491        26897 
   95400    1110.7957    43388 2.6232887e-12        16491        26897 
   95500    1112.9391    43388 2.6232887e-12        16491        26897 
   95600    1115.0257    43388 2.6232887e-12        16491        26897 
   95700    1117.1218    43388 2.6232887e-12        16491        26897 
   95800     1119.151    43388 2.6232887e-12        16491        26897 
   95900    1121.1638    43388 2.6232887e-12        16491        26897 
   96000     1123.221    43388 2.6232887e-12        16491        26897 
   96100    1125.1802    43388 2.6232887e-12        16491        26897 
   96200    1127.3271    43388 2.6232887e-12        16491        26897 
   96300    1129.4392    43388 2.6232887e-12        16491        26897 
   96400    1131.5457    43388 2.6232887e-12        16491        26897 
   96500    1133.6439    43388 2.6232887e-12        16491        26897 
   96600    1135.7677    43388 2.6232887e-12        16491        26897 
   96700    1137.9356    43388 2.6232887e-12        16491        26897 
   96800    1140.1394    43388 2.6232887e-12        16491        26897 
   96900    1142.1042    43388 2.6232887e-12        16491        26897 
   97000    1144.0839    43388 2.6232887e-12        16491        26897 
   97100     1146.117    43388 2.6232887e-12        16491        26897 
   97200    1148.1068    43388 2.6232887e-12        16491        26897 
   97300    1150.1043    43388 2.6232887e-12        16491        26897 
   97400    1152.1886    43388 2.6232887e-12        16491        26897 
   97500      1154.21    43388 2.6232887e-12        16491        26897 
   97600    1156.2238    43388 2.6232887e-12        16491        26897 
   97700    1158.3378    43388 2.6232887e-12        16491        26897 
   97800    1160.3379    43388 2.6232887e-12        16491        26897 
   97900     1162.513    43388 2.6232887e-12        16491        26897 
   98000    1164.5468    43388 2.6232887e-12        16491        26897 
   98100    1166.4462    43388 2.6232887e-12        16491        26897 
   98200    1168.4829    43388 2.6232887e-12        16491        26897 
   98300    1170.4946    43388 2.6232887e-12        16491        26897 
   98400       1172.5    43388 2.6232887e-12        16491        26897 
   98500    1174.5439    43388 2.6232887e-12        16491        26897 
   98600    1176.5388    43388 2.6232887e-12        16491        26897 
   98700    1178.5308    43388 2.6232887e-12        16491        26897 
   98800    1180.5365    43388 2.6232887e-12        16491        26897 
   98900    1182.5666    43388 2.6232887e-12        16491        26897 
   99000    1184.6101    43388 2.6232887e-12        16491        26897 
   99100    1186.6641    43388 2.6232887e-12        16491        26897 
   99200    1188.8747    43388 2.6232887e-12        16491        26897 
   99300    1190.8866    43388 2.6232887e-12        16491        26897 
   99400    1192.9286    43388 2.6232887e-12        16491        26897 
   99500    1195.0373    43388 2.6232887e-12        16491        26897 
   99600    1197.0627    43388 2.6232887e-12        16491        26897 
   99700    1199.2423    43388 2.6232887e-12        16491        26897 
   99800    1201.3468    43388 2.6232887e-12        16491        26897 
   99900    1203.4449    43388 2.6232887e-12        16491        26897 
  100000    1205.5169    43388 2.6232887e-12        16491        26897 
  100100    1207.5665    43388 2.6232887e-12        16491        26897 
  100200    1209.4694    43388 2.6232887e-12        16491        26897 
  100300    1211.4823    43388 2.6232887e-12        16491        26897 
  100400    1213.5024    43388 2.6232887e-12        16491        26897 
  100500     1215.397    43388 2.6232887e-12        16491        26897 
  100600    1217.4079    43388 2.6232887e-12        16491        26897 
  100700    1219.4417    43388 2.6232887e-12        16491        26897 
  100800    1221.3676    43388 2.6232887e-12        16491        26897 
  100900     1223.375    43388 2.6232887e-12        16491        26897 
  101000    1225.3914    43388 2.6232887e-12        16491        26897 
  101100    1227.3235    43388 2.6232887e-12        16491        26897 
  101200    1229.3685    43388 2.6232887e-12        16491        26897 
  101300    1231.4375    43388 2.6232887e-12        16491        26897 
  101400    1233.4448    43388 2.6232887e-12        16491        26897 
  101500     1235.466    43388 2.6232887e-12        16491        26897 
  101600     1237.479    43388 2.6232887e-12        16491        26897 
  101700    1239.4868    43388 2.6232887e-12        16491        26897 
  101800    1241.5085    43388 2.6232887e-12        16491        26897 
  101900    1243.4536    43388 2.6232887e-12        16491        26897 
  102000    1245.5716    43388 2.6232887e-12        16491        26897 
  102100    1247.4987    43388 2.6232887e-12        16491        26897 
  102200    1249.5077    43388 2.6232887e-12        16491        26897 
  102300      1251.52    43388 2.6232887e-12        16491        26897 
  102400    1253.5667    43388 2.6232887e-12        16491        26897 
  102500     1255.505    43388 2.6232887e-12        16491        26897 
  102600    1257.5863    43388 2.6232887e-12        16491        26897 
  102700    1259.5749    43388 2.6232887e-12        16491        26897 
  102800    1261.6157    43388 2.6232887e-12        16491        26897 
  102900    1263.6849    43388 2.6232887e-12        16491        26897 
  103000    1265.6405    43388 2.6232887e-12        16491        26897 
  103100    1267.7091    43388 2.6232887e-12        16491        26897 
  103200    1269.7728    43388 2.6232887e-12        16491        26897 
  103300    1271.7197    43388 2.6232887e-12        16491        26897 
  103400    1273.7023    43388 2.6232887e-12        16491        26897 
  103500    1275.5926    43388 2.6232887e-12        16491        26897 
  103600      1277.59    43388 2.6232887e-12        16491        26897 
  103700    1279.6426    43388 2.6232887e-12        16491        26897 
  103800    1281.6138    43388 2.6232887e-12        16491        26897 
  103900    1283.6816    43388 2.6232887e-12        16491        26897 
  104000    1285.6937    43388 2.6232887e-12        16491        26897 
  104100    1287.7437    43388 2.6232887e-12        16491        26897 
  104200    1289.7305    43388 2.6232887e-12        16491        26897 
  104300    1291.6796    43388 2.6232887e-12        16491        26897 
  104400    1293.6675    43388 2.6232887e-12        16491        26897 
  104500    1295.7641    43388 2.6232887e-12        16491        26897 
  104600    1297.7227    43388 2.6232887e-12        16491        26897 
  104700    1299.7935    43388 2.6232887e-12        16491        26897 
  104800    1301.8653    43388 2.6232887e-12        16491        26897 
[...]
  513800    10082.529    42363 2.4971382e-12        15668        26695 
  513900     10084.51    42361 2.497004e-12        15667        26694 
  514000    10086.601    42361 2.497004e-12        15667        26694 
  514100    10088.649    42361 2.497004e-12        15667        26694 
  514200     10090.86    42361 2.497004e-12        15667        26694 
  514300    10092.889    42361 2.497004e-12        15667        26694 
  514400    10094.868    42360 2.4968743e-12        15666        26694 
  514500    10097.033    42360 2.4968743e-12        15666        26694 
  514600    10099.098    42358 2.4966076e-12        15664        26694 
  514700    10101.121    42358 2.4966076e-12        15664        26694 
  514800    10103.172    42357 2.496596e-12        15664        26693 
  514900    10105.159    42357 2.496596e-12        15664        26693 
  515000    10107.201    42356 2.4965811e-12        15664        26692 
  515100    10109.268    42356 2.4965811e-12        15664        26692 
  515200    10111.302    42356 2.4965811e-12        15664        26692 
  515300     10113.35    42355 2.4964407e-12        15663        26692 
  515400    10115.196    42355 2.4964407e-12        15663        26692 
  515500    10117.221    42353 2.4962026e-12        15661        26692 
  515600     10119.35    42353 2.4962026e-12        15661        26692 
  515700    10121.487    42353 2.4962026e-12        15661        26692 
  515800    10123.571    42353 2.4962026e-12        15661        26692 
  515900    10125.529    42352 2.4960918e-12        15660        26692 
  516000    10127.606    42352 2.4960918e-12        15660        26692 
  516100    10129.768    42351 2.495953e-12        15659        26692 
  516200    10131.911    42351 2.495953e-12        15659        26692 
  516300    10133.947    42351 2.495953e-12        15659        26692 
  516400    10135.906    42351 2.495953e-12        15659        26692 
  516500    10137.933    42351 2.495953e-12        15659        26692 
  516600    10140.051    42351 2.495953e-12        15659        26692 
  516700     10142.18    42351 2.495953e-12        15659        26692 
  516800    10144.317    42351 2.495953e-12        15659        26692 
  516900    10146.379    42351 2.495953e-12        15659        26692 
  517000    10148.515    42351 2.495953e-12        15659        26692 
  517100    10150.757    42351 2.495953e-12        15659        26692 
  517200    10152.838    42351 2.495953e-12        15659        26692 
  517300    10154.915    42351 2.495953e-12        15659        26692 
  517400    10156.904    42351 2.495953e-12        15659        26692 
  517500    10159.132    42351 2.495953e-12        15659        26692 
  517600    10161.167    42351 2.495953e-12        15659        26692 
  517700      10163.2    42350 2.4958339e-12        15658        26692 
  517800    10165.187    42350 2.4958339e-12        15658        26692 
  517900    10167.127    42350 2.4958339e-12        15658        26692 
  518000    10169.324    42348 2.4957318e-12        15657        26691 
  518100    10171.378    42348 2.4957318e-12        15657        26691 
  518200    10173.424    42348 2.4957318e-12        15657        26691 
  518300    10175.345    42348 2.4957318e-12        15657        26691 
  518400    10177.361    42346 2.4955896e-12        15656        26690 
  518500    10179.317    42346 2.4955896e-12        15656        26690 
  518600     10181.35    42346 2.4955896e-12        15656        26690 
  518700    10183.447    42346 2.4955896e-12        15656        26690 
  518800    10185.495    42346 2.4955896e-12        15656        26690 
  518900    10187.523    42346 2.4955896e-12        15656        26690 
  519000    10189.519    42346 2.4955896e-12        15656        26690 
  519100     10191.45    42346 2.4955896e-12        15656        26690 
  519200    10193.602    42345 2.4954781e-12        15655        26690 
  519300     10195.59    42345 2.4954781e-12        15655        26690 
  519400    10197.545    42345 2.4954781e-12        15655        26690 
  519500    10199.511    42345 2.4954781e-12        15655        26690 
  519600    10201.652    42345 2.4954781e-12        15655        26690 
  519700    10203.692    42345 2.4954781e-12        15655        26690 
  519800    10205.651    42345 2.4954781e-12        15655        26690 
  519900    10207.743    42344 2.4953225e-12        15654        26690 
  520000    10209.769    42343 2.4953089e-12        15654        26689 
  520100    10211.793    42343 2.4953089e-12        15654        26689 
  520200    10213.926    42343 2.4953089e-12        15654        26689 
  520300    10215.964    42343 2.4953089e-12        15654        26689 
  520400    10218.083    42342 2.4951781e-12        15653        26689 
  520500     10219.92    42342 2.4951781e-12        15653        26689 
  520600    10221.948    42341 2.4951647e-12        15653        26688 
  520700    10224.092    42341 2.4951647e-12        15653        26688 
  520800    10226.137    42340 2.4950423e-12        15652        26688 
  520900    10228.167    42339 2.4949469e-12        15651        26688 
  521000    10230.323    42339 2.4949469e-12        15651        26688 
  521100    10232.407    42338 2.4949304e-12        15651        26687 
  521200    10234.437    42338 2.4949304e-12        15651        26687 
  521300    10236.474    42338 2.4949304e-12        15651        26687 
  521400    10238.373    42338 2.4949304e-12        15651        26687 
  521500    10240.288    42337  2.49492e-12        15651        26686 
  521600    10242.209    42337  2.49492e-12        15651        26686 
  521700    10244.481    42337  2.49492e-12        15651        26686 
  521800    10246.545    42335 2.4947976e-12        15650        26685 
  521900    10248.593    42335 2.4947976e-12        15650        26685 
  522000    10250.677    42335 2.4947976e-12        15650        26685 
  522100    10252.821    42335 2.4947976e-12        15650        26685 
  522200    10254.862    42335 2.4947976e-12        15650        26685 
  522300     10257.01    42335 2.4947976e-12        15650        26685 
  522400    10259.163    42335 2.4947976e-12        15650        26685 
  522500    10261.072    42335 2.4947976e-12        15650        26685 
  522600    10263.201    42335 2.4947976e-12        15650        26685 
  522700    10265.355    42335 2.4947976e-12        15650        26685 
  522800    10267.494    42333 2.4946176e-12        15648        26685 
  522900    10269.648    42333 2.4946176e-12        15648        26685 
  523000    10271.787    42332 2.4945068e-12        15647        26685 
  523100    10273.924    42331 2.4944953e-12        15647        26684 
  523200    10276.077    42331 2.4944953e-12        15647        26684 
  523300    10278.379    42331 2.4944953e-12        15647        26684 
  523400    10280.513    42330 2.4944834e-12        15647        26683 
  523500    10282.668    42329 2.4944629e-12        15647        26682 
  523600    10284.828    42328 2.4943241e-12        15646        26682 
  523700    10286.983    42328 2.4943241e-12        15646        26682 
  523800    10289.143    42327 2.4943045e-12        15646        26681 
  523900    10291.131    42326 2.4942957e-12        15646        26680 
  524000    10293.151    42326 2.4942957e-12        15646        26680 
  524100    10295.356    42323 2.4941121e-12        15645        26678 
  524200    10297.421    42323 2.4941121e-12        15645        26678 
  524300    10299.495    42321 2.4939878e-12        15644        26677 
  524400    10301.494    42321 2.4939878e-12        15644        26677 
  524500    10303.439    42319 2.4936838e-12        15642        26677 
  524600    10305.488    42318 2.4936664e-12        15642        26676 
  524700    10307.515    42318 2.4936664e-12        15642        26676 
  524800    10309.687    42317 2.493652e-12        15642        26675 
  524900    10311.855    42317 2.493652e-12        15642        26675 
  525000    10313.961    42316 2.4935225e-12        15641        26675 
  525100     10316.12    42316 2.4935225e-12        15641        26675 
  525200    10318.186    42315 2.4935039e-12        15641        26674 
  525300    10320.245    42315 2.4935039e-12        15641        26674 
  525400    10322.276    42314 2.4934849e-12        15641        26673 
  525500    10324.358    42314 2.4934849e-12        15641        26673 
  525600    10326.411    42313 2.4933586e-12        15640        26673 
  525700    10328.449    42313 2.4933586e-12        15640        26673 
  525800     10330.45    42313 2.4933586e-12        15640        26673 
  525900    10332.489    42311 2.4932192e-12        15639        26672 
  526000    10334.474    42311 2.4932192e-12        15639        26672 
  526100    10336.587    42311 2.4932192e-12        15639        26672 
  526200    10338.865    42307 2.4930805e-12        15638        26669 
  526300    10340.903    42307 2.4930805e-12        15638        26669 
  526400    10342.928    42306 2.4930652e-12        15638        26668 
  526500    10345.011    42304 2.4928156e-12        15636        26668 
  526600    10347.143    42300 2.4925942e-12        15635        26665 
  526700     10349.17    42299 2.4925796e-12        15635        26664 
  526800    10351.363    42298 2.4925672e-12        15635        26663 
  526900     10353.42    42297 2.4925583e-12        15635        26662 
  527000    10355.373    42296 2.4924741e-12        15634        26662 
  527100    10357.417    42296 2.4924741e-12        15634        26662 
  527200    10359.454    42292 2.4922165e-12        15632        26660 
  527300    10361.501    42292 2.4922165e-12        15632        26660 
  527400    10363.421    42292 2.4922165e-12        15632        26660 
  527500    10365.354    42292 2.4922165e-12        15632        26660 
  527600    10367.462    42292 2.4922165e-12        15632        26660 
  527700    10369.498    42292 2.4922165e-12        15632        26660 
  527800    10371.539    42292 2.4922165e-12        15632        26660 
  527900    10373.599    42292 2.4922165e-12        15632        26660 
  528000    10375.723    42292 2.4922165e-12        15632        26660 
  528100    10377.847    42292 2.4922165e-12        15632        26660 
  528200    10379.873    42292 2.4922165e-12        15632        26660 
  528300    10381.907    42291 2.4920954e-12        15631        26660 
  528400    10384.047    42290 2.4920859e-12        15631        26659 
  528500    10386.077    42288 2.4920622e-12        15631        26657 
  528600    10388.092    42288 2.4920622e-12        15631        26657 
  528700    10390.278    42287 2.492047e-12        15631        26656 
  528800    10392.348    42286 2.492027e-12        15631        26655 
  528900    10394.388    42284 2.4919234e-12        15630        26654 
  529000    10396.442    42282 2.4919019e-12        15630        26652 
  529100     10398.59    42282 2.4919019e-12        15630        26652 
  529200    10400.619    42280 2.4918711e-12        15630        26650 
  529300    10402.763    42280 2.4918711e-12        15630        26650 
  529400    10404.797    42280 2.4918711e-12        15630        26650 
  529500    10406.832    42280 2.4918711e-12        15630        26650 
  529600    10408.848    42280 2.4918711e-12        15630        26650 
  529700    10410.867    42280 2.4918711e-12        15630        26650 
  529800    10412.894    42280 2.4918711e-12        15630        26650 
  529900    10414.933    42280 2.4918711e-12        15630        26650 
  530000    10417.053    42280 2.4918711e-12        15630        26650 
  530100    10419.172    42280 2.4918711e-12        15630        26650 
  530200    10421.225    42280 2.4918711e-12        15630        26650 
  530300    10423.306    42280 2.4918711e-12        15630        26650 
  530400    10425.498    42280 2.4918711e-12        15630        26650 
  530500    10427.589    42280 2.4918711e-12        15630        26650 
  530600    10429.577    42280 2.4918711e-12        15630        26650 
  530700    10431.616    42280 2.4918711e-12        15630        26650 
  530800    10433.951    42280 2.4918711e-12        15630        26650 
  530900    10436.107    42280 2.4918711e-12        15630        26650 
  531000    10438.069    42280 2.4918711e-12        15630        26650 
  531100    10440.378    42280 2.4918711e-12        15630        26650 
  531200    10442.388    42280 2.4918711e-12        15630        26650 
  531300     10444.52    42280 2.4918711e-12        15630        26650 
  531400    10446.595    42280 2.4918711e-12        15630        26650 
  531500    10448.658    42280 2.4918711e-12        15630        26650 
  531600    10450.822    42280 2.4918711e-12        15630        26650 
  531700    10453.102    42280 2.4918711e-12        15630        26650 
  531800    10455.241    42280 2.4918711e-12        15630        26650 
  531900     10457.29    42280 2.4918711e-12        15630        26650 
  532000    10459.396    42280 2.4918711e-12        15630        26650 
  532100    10461.429    42280 2.4918711e-12        15630        26650 
  532200    10463.609    42280 2.4918711e-12        15630        26650 
  532300    10465.751    42280 2.4918711e-12        15630        26650 
  532400        10468    42280 2.4918711e-12        15630        26650 
  532500    10470.005    42280 2.4918711e-12        15630        26650 
  532600     10472.03    42280 2.4918711e-12        15630        26650 
  532700    10474.208    42280 2.4918711e-12        15630        26650 
  532800    10476.245    42280 2.4918711e-12        15630        26650 
  532900    10478.373    42280 2.4918711e-12        15630        26650 
  533000    10480.408    42280 2.4918711e-12        15630        26650 
  533100    10482.641    42280 2.4918711e-12        15630        26650 
  533200    10484.662    42280 2.4918711e-12        15630        26650 
  533300    10486.907    42280 2.4918711e-12        15630        26650 
  533400    10489.046    42280 2.4918711e-12        15630        26650 
  533500    10491.064    42280 2.4918711e-12        15630        26650 
  533600     10493.07    42280 2.4918711e-12        15630        26650 
  533700      10495.2    42280 2.4918711e-12        15630        26650 
  533800    10497.319    42280 2.4918711e-12        15630        26650 
  533900    10499.502    42280 2.4918711e-12        15630        26650 
  534000    10501.502    42280 2.4918711e-12        15630        26650 
  534100     10503.61    42280 2.4918711e-12        15630        26650 
  534200    10505.741    42280 2.4918711e-12        15630        26650 
  534300    10507.869    42280 2.4918711e-12        15630        26650 
  534400    10510.048    42280 2.4918711e-12        15630        26650 
  534500    10512.007    42280 2.4918711e-12        15630        26650 
  534600    10514.113    42280 2.4918711e-12        15630        26650 
  534700    10516.261    42280 2.4918711e-12        15630        26650 
  534800    10518.407    42280 2.4918711e-12        15630        26650 
  534900     10520.44    42280 2.4918711e-12        15630        26650 
  535000    10522.505    42280 2.4918711e-12        15630        26650 
  535100    10524.654    42280 2.4918711e-12        15630        26650 
  535200    10526.793    42280 2.4918711e-12        15630        26650 
  535300    10528.822    42280 2.4918711e-12        15630        26650 
  535400    10530.963    42280 2.4918711e-12        15630        26650 
  535500    10533.035    42280 2.4918711e-12        15630        26650 
  535600    10535.125    42280 2.4918711e-12        15630        26650 
  535700     10537.27    42280 2.4918711e-12        15630        26650 
  535800     10539.31    42280 2.4918711e-12        15630        26650 
  535900    10541.476    42280 2.4918711e-12        15630        26650 
  536000    10543.558    42280 2.4918711e-12        15630        26650 
  536100    10545.709    42280 2.4918711e-12        15630        26650 
  536200    10547.793    42280 2.4918711e-12        15630        26650 
  536300    10549.952    42280 2.4918711e-12        15630        26650 
  536400    10552.072    42280 2.4918711e-12        15630        26650 
  536500    10554.018    42280 2.4918711e-12        15630        26650 
  536600    10556.108    42280 2.4918711e-12        15630        26650 
  536700    10558.356    42280 2.4918711e-12        15630        26650 
  536800    10560.514    42280 2.4918711e-12        15630        26650 
  536900    10562.646    42280 2.4918711e-12        15630        26650 
  537000    10564.663    42280 2.4918711e-12        15630        26650 
  537100    10566.764    42280 2.4918711e-12        15630        26650 
  537200    10568.873    42280 2.4918711e-12        15630        26650 
  537300    10571.013    42280 2.4918711e-12        15630        26650 
  537400    10573.135    42280 2.4918711e-12        15630        26650 
  537500    10575.091    42280 2.4918711e-12        15630        26650 
  537600    10577.159    42280 2.4918711e-12        15630        26650 
  537700    10579.155    42280 2.4918711e-12        15630        26650 
  537800    10581.274    42280 2.4918711e-12        15630        26650 
  537900    10583.385    42280 2.4918711e-12        15630        26650 
  538000    10585.394    42280 2.4918711e-12        15630        26650 
  538100    10587.356    42280 2.4918711e-12        15630        26650 
  538200    10589.479    42280 2.4918711e-12        15630        26650 
  538300    10591.504    42280 2.4918711e-12        15630        26650 
  538400    10593.606    42280 2.4918711e-12        15630        26650 
  538500    10595.584    42280 2.4918711e-12        15630        26650 
  538600    10597.564    42280 2.4918711e-12        15630        26650 
  538700    10599.691    42280 2.4918711e-12        15630        26650 
  538800    10601.793    42280 2.4918711e-12        15630        26650 
  538900    10603.909    42280 2.4918711e-12        15630        26650 
  539000    10606.011    42280 2.4918711e-12        15630        26650 
  539100    10608.078    42280 2.4918711e-12        15630        26650 
  539200    10610.095    42280 2.4918711e-12        15630        26650 
  539300    10612.205    42280 2.4918711e-12        15630        26650 
  539400    10614.214    42280 2.4918711e-12        15630        26650 
  539500    10616.309    42280 2.4918711e-12        15630        26650 
  539600     10618.22    42280 2.4918711e-12        15630        26650 
  539700    10620.333    42280 2.4918711e-12        15630        26650 
  539800    10622.237    42280 2.4918711e-12        15630        26650 
  539900    10624.364    42280 2.4918711e-12        15630        26650 
  540000    10626.331    42280 2.4918711e-12        15630        26650 
Loop time of 10626.3 on 1 procs for 500000 steps with 42280 atoms

Performance: 10163432.943 tau/day, 47.053 timesteps/s
100.0% CPU use with 1 MPI tasks x no OpenMP threads

MPI task timing breakdown:
Section |  min time  |  avg time  |  max time  |%varavg| %total
---------------------------------------------------------------
Pair    | 4484.6     | 4484.6     | 4484.6     |   0.0 | 42.20
Neigh   | 920.33     | 920.33     | 920.33     |   0.0 |  8.66
Comm    | 9.2859     | 9.2859     | 9.2859     |   0.0 |  0.09
Output  | 13.955     | 13.955     | 13.955     |   0.0 |  0.13
Modify  | 5032.7     | 5032.7     | 5032.7     |   0.0 | 47.36
Other   |            | 165.5      |            |       |  1.56

Nlocal:    42280 ave 42280 max 42280 min
Histogram: 1 0 0 0 0 0 0 0 0 0
Nghost:    0 ave 0 max 0 min
Histogram: 1 0 0 0 0 0 0 0 0 0
Neighs:    294118 ave 294118 max 294118 min
Histogram: 1 0 0 0 0 0 0 0 0 0

Total # of neighbors = 294118
Ave neighs/atom = 6.95643
Neighbor list builds = 9069
Dangerous builds = 0

next     a
jump SELF loopa











Total wall time: 3:31:12
