 NUFEB Simulation

     9 atoms 
     1 atom types 
     4 nutrients 

  0.0e-4   1.00e-04  xlo xhi 
  0.0e-4   1.00e-04  ylo yhi 
  0.0e-4   1.00e-05  zlo zhi 

 Atoms 

     1 1 1.53e-06  1.3e3 9.81e-06 2.12e-05 8.82e-06 1.53e-06 
     2 1 1.60e-06  1.3e3 6.22e-05 4.52e-05 3.88e-06 1.60e-06 
     3 1 1.41e-06  1.3e3 5.56e-05 5.83e-05 8.64e-06 1.41e-06 
     4 1 1.82e-06  1.3e3 6.32e-05 8.05e-05 6.77e-06 1.82e-06 
     5 1 1.77e-06  1.3e3 7.29e-05 8.11e-07 7.79e-06 1.77e-06 
     6 1 1.60e-06  1.3e3 6.58e-05 4.96e-05 5.50e-06 1.60e-06 
     7 1 1.83e-06  1.3e3 8.64e-05 4.23e-05 9.42e-06 1.83e-06 
     8 1 1.66e-06  1.3e3 3.14e-05 7.52e-05 4.50e-06 1.66e-06 
     9 1 1.40e-06  1.3e3 9.85e-05 7.89e-05 7.58e-06 1.40e-06 

 Nutrients 

     1 sub g 1.00e-01 1.00e-01 1.00e-01 1.00e-01 1.00e-01 1.00e-01 1.00e-01 
     2 o2 l 9.00e-03 9.00e-03 9.00e-03 9.00e-03 9.00e-03 9.00e-03 9.00e-03 
     3 suc l 1.00e-20 1.00e-20 1.00e-20 1.00e-20 1.00e-20 1.00e-20 1.00e-20 
     4 co2 l 4.00e-01 4.00e-01 4.00e-01 4.00e-01 4.00e-01 4.00e-01 4.00e-01 

 Type Name 

     1 cyano 

 Diffusion Coeffs 

     sub 0 
     o2 2.3e-09 
     suc 5.2e-10 
     co2 1.9e-09 

 Growth Rate 

     cyano 1.31e-05 

 Ks 

     cyano 0.00035 0.0002 0.01 0.05 

 Yield 

     cyano 0.3 

 Maintenance 

     cyano 0 

 Decay 

     cyano 0 

