LAMMPS (20 Nov 2019)
# NUFEB simulation

atom_style	bio
atom_modify	map array sort 1000 5.0e-7
boundary	ff ff ff
newton		off
processors  * * 1

comm_modify	vel yes
read_data_bio sucrose_atom.in
  orthogonal box = (0 0 0) to (0.0001 0.0001 1e-05)
  4 by 3 by 1 MPI processor grid
  reading atoms ...
  10 atoms
  4 nutrients

##############Define initial particle distribution##############

lattice sc 1e-6 origin 0 0 0
Lattice spacing in x,y,z = 100 100 100
region reg block 0 1000 0 1000 0 100

group CYANO type 1
10 atoms in group CYANO

neighbor	5e-7 bin
neigh_modify	delay 0 one 5000

##############Define DEM Variables&Commands##############

pair_style  gran/hooke/history 1.e-4 NULL 1.e-5 NULL 0.0 1
pair_coeff  * *

timestep 10

fix 1 all nve/limit 1e-8
fix fv all viscous 1e-5

fix zw all wall/gran hooke/history 2000 NULL 500.0 NULL 1.5 0 zplane  0.0  1e-05

variable kanc equal 50

#fix zwa all walladh v_kanc zplane  0.0  1e-04

variable ke equal 5e+10
#fix j1 all epsadh 1 v_ke 1

##############Define IBm Variables##############

#variables used in fix eps_extract
variable EPSdens equal 30
variable EPSratio equal 1.3

#variables used in fix division
variable divDia equal 1.94e-6

#variable used for sucrose export
variable sucRatio index 0.0 0.1 0.2 0.3 0.4 0.5 0.6 0.7 0.8 0.9 1.0

#variables used in fix kinetics
variable diffT equal 1e-4
variable tol equal 1e-11
variable etaHET equal 0.6
variable layer equal -1

#variables used in fix death
#variable deadDia equal 9e-7


##############Define IBm Commands##############

fix k1 all kinetics 100 50 50 5 v_diffT v_layer niter 1000000
fix kgm all kinetics/growth/monod sucexp ${sucRatio}#gflag 1
fix kgm all kinetics/growth/monod sucexp 0.0
fix g1 all kinetics/diffusion v_tol
fix d1 all divide 100 v_EPSdens v_divDia 64564
#fix d2 all death 1 v_deadDia demflag 0


##############Define IBm Computes##############

compute myNtypes all ntypes
compute myMass all biomass
compute myCon all avg_con


##############Simulation exit condition##############
variable co2 equal c_myCon[4]
fix 10 all halt 1 v_co2 <= 1e-19

variable light equal c_myCon[1]
fix 11 all halt 1 v_light <= 1e-19


##############Simulation Output##############

dump		id all custom 360 output.lammmps id type diameter x y z
dump		du1 all vtk 360 atom_*.vtu id type diameter x y z
dump		du2 all grid 360 grid_%_*.vti con
dump        du3 all bio 360 ntypes biomass avg_con
thermo_style    custom step cpu atoms c_myNtypes[*] c_myMass[*] c_myCon[*]
thermo		360
thermo_modify	lost ignore

shell mkdir Sucrose_${sucRatio}
shell mkdir Sucrose_0.0
shell cd Sucrose_${sucRatio}
shell cd Sucrose_0.0
run 35000
Model is defined as a closed system. 
Neighbor list info ...
  update every 1 steps, delay 0 steps, check yes
  max neighbors/atom: 5000, page size: 100000
  master list distance cutoff = 2.43e-06
  ghost atom cutoff = 2.43e-06
  binsize = 1.215e-06, bins = 83 83 9
  1 neighbor lists, perpetual/occasional/extra = 1 0 0
  (1) pair gran/hooke/history, perpetual
      attributes: half, newton off, size, history
      pair build: half/size/bin/newtoff
      stencil: half/bin/3d/newtoff
      bin: standard
Per MPI rank memory allocation (min/avg/max) = 11 | 11.75 | 12.13 Mbytes
Step CPU Atoms c_myNtypes[1] c_myMass[1] c_myCon[1] c_myCon[2] c_myCon[3] c_myCon[4] 
       0            0       10           10 1.0633829e-14          0.1        0.009        1e-20           44 
number of iterations: 1486 
number of iterations: 1370 
number of iterations: 1280 
     360    0.6299545       11           11 1.1173608e-14          0.1  0.015945757        1e-20    43.990354 
number of iterations: 1201 
number of iterations: 1131 
number of iterations: 1062 
number of iterations: 999 
     720    1.4157469       15           15 1.1936173e-14          0.1  0.025758558        1e-20    43.976733 
number of iterations: 938 
number of iterations: 877 
number of iterations: 827 
    1080    1.9485689       16           16 1.254206e-14          0.1  0.033555424        1e-20    43.965918 
number of iterations: 798 
number of iterations: 772 
number of iterations: 748 
number of iterations: 727 
    1440    2.5766248       16           16 1.3398018e-14          0.1  0.044570675        1e-20    43.950641 
number of iterations: 707 
number of iterations: 689 
number of iterations: 672 
number of iterations: 657 
    1800    3.0805273       16           16 1.4312392e-14          0.1  0.056337983        1e-20    43.934323 
number of iterations: 642 
number of iterations: 629 
number of iterations: 616 
    2160    3.4552458       16           16 1.5038897e-14          0.1  0.065687731        1e-20    43.921359 
number of iterations: 605 
number of iterations: 595 
number of iterations: 584 
number of iterations: 574 
    2520     3.909127       17           17 1.6065257e-14          0.1  0.078896492        1e-20    43.903049 
number of iterations: 565 
number of iterations: 557 
number of iterations: 548 
    2880    4.2573798       18           18 1.6880738e-14          0.1  0.089391326        1e-20    43.888503 
number of iterations: 540 
number of iterations: 533 
number of iterations: 525 
number of iterations: 518 
    3240    4.7876229       18           18 1.8032797e-14          0.1   0.10421785        1e-20    43.867956 
number of iterations: 511 
number of iterations: 505 
number of iterations: 498 
number of iterations: 492 
    3600    5.1533892       18           18 1.9263482e-14          0.1   0.12005645        1e-20    43.846008 
number of iterations: 487 
number of iterations: 481 
number of iterations: 476 
    3960    5.4431785       18           18 2.0241307e-14          0.1   0.13264094        1e-20    43.828571 
number of iterations: 470 
number of iterations: 465 
number of iterations: 452 
number of iterations: 448 
    4320    5.9132198       19           19 2.1622715e-14          0.1    0.1504199        1e-20     43.80394 
number of iterations: 453 
number of iterations: 460 
number of iterations: 456 
    4680    6.1667202       23           23 2.2720296e-14          0.1   0.16454578        1e-20    43.784374 
number of iterations: 452 
number of iterations: 449 
number of iterations: 447 
number of iterations: 443 
    5040    6.5423669       29           29 2.4270888e-14          0.1   0.18450208        1e-20    43.756737 
number of iterations: 440 
number of iterations: 436 
number of iterations: 433 
number of iterations: 430 
    5400    6.9999325       31           31 2.5927303e-14          0.1   0.20582067        1e-20    43.727205 
number of iterations: 427 
number of iterations: 424 
number of iterations: 421 
    5760    7.2641883       31           31 2.7243387e-14          0.1   0.22275919        1e-20    43.703741 
number of iterations: 418 
number of iterations: 415 
number of iterations: 413 
number of iterations: 411 
    6120     7.605343       32           32 2.9102666e-14          0.1   0.24668888        1e-20    43.670596 
number of iterations: 408 
number of iterations: 406 
number of iterations: 404 
    6480    7.9502644       32           32 3.0579934e-14          0.1   0.26570195        1e-20    43.644263 
number of iterations: 402 
number of iterations: 400 
number of iterations: 398 
number of iterations: 396 
    6840    8.2698272       35           35 3.2666922e-14          0.1    0.2925629        1e-20    43.607064 
number of iterations: 394 
number of iterations: 393 
number of iterations: 391 
number of iterations: 389 
    7200    8.5705052       36           36 3.4896342e-14          0.1   0.32125742        1e-20    43.567336 
number of iterations: 388 
number of iterations: 386 
number of iterations: 385 
    7560    8.9692899       36           36 3.6667699e-14          0.1   0.34405637        1e-20    43.535776 
number of iterations: 383 
number of iterations: 382 
number of iterations: 381 
number of iterations: 379 
    7920    9.3148288       36           36 3.9170159e-14          0.1   0.37626581        1e-20     43.49119 
number of iterations: 378 
number of iterations: 377 
number of iterations: 378 
    8280    9.5604141       37           37 4.1158458e-14          0.1   0.40185751        1e-20    43.455767 
number of iterations: 377 
number of iterations: 376 
number of iterations: 374 
number of iterations: 372 
    8640    9.8783214       43           43 4.3967399e-14          0.1   0.43801151        1e-20     43.40573 
number of iterations: 371 
number of iterations: 374 
number of iterations: 373 
number of iterations: 372 
    9000    10.255183       51           51 4.6968042e-14          0.1   0.47663251        1e-20     43.35228 
number of iterations: 371 
number of iterations: 370 
number of iterations: 369 
    9360    10.507797       55           55 4.9352166e-14          0.1   0.50731837        1e-20    43.309811 
number of iterations: 369 
number of iterations: 368 
number of iterations: 362 
number of iterations: 361 
    9720    10.825488       61           61 5.2720302e-14          0.1   0.55066888        1e-20    43.249814 
number of iterations: 360 
number of iterations: 360 
number of iterations: 359 
   10080    11.128269       61           61 5.5396414e-14          0.1   0.58511273        1e-20    43.202144 
number of iterations: 358 
number of iterations: 358 
number of iterations: 357 
number of iterations: 356 
   10440    11.472416       65           65 5.9177053e-14          0.1   0.63377303        1e-20    43.134804 
number of iterations: 356 
number of iterations: 355 
number of iterations: 354 
number of iterations: 354 
   10800    11.770466       67           67 6.3215708e-14          0.1   0.68575468        1e-20    43.062871 
number of iterations: 353 
number of iterations: 353 
number of iterations: 352 
   11160    12.023395       70           70 6.6424572e-14          0.1   0.72705613        1e-20    43.005721 
number of iterations: 352 
number of iterations: 351 
number of iterations: 350 
number of iterations: 350 
   11520    12.380865       72           72 7.0957849e-14          0.1   0.78540369        1e-20    42.924986 
number of iterations: 349 
number of iterations: 349 
number of iterations: 348 
   11880    12.597521       73           73 7.4559709e-14          0.1   0.83176332        1e-20    42.860842 
number of iterations: 348 
number of iterations: 348 
number of iterations: 347 
number of iterations: 347 
   12240    12.899408       76           76 7.9648184e-14          0.1   0.89725795        1e-20    42.770225 
number of iterations: 346 
number of iterations: 345 
number of iterations: 345 
number of iterations: 344 
   12600    13.297107       79           79 8.5083933e-14          0.1    0.9672223        1e-20    42.673426 
number of iterations: 342 
number of iterations: 340 
number of iterations: 340 
   12960     13.54606       90           90 8.940284e-14          0.1     1.022813        1e-20    42.596516 
number of iterations: 340 
number of iterations: 339 
number of iterations: 339 
number of iterations: 339 
   13320    13.834183      105          105 9.5504315e-14          0.1    1.1013492        1e-20    42.487868 
number of iterations: 338 
number of iterations: 338 
number of iterations: 338 
   13680    14.121541      111          111 1.0035217e-13          0.1    1.1637488        1e-20    42.401548 
number of iterations: 337 
number of iterations: 337 
number of iterations: 337 
number of iterations: 337 
   14040    14.453688      118          118 1.072009e-13          0.1    1.2519024        1e-20    42.279607 
number of iterations: 335 
number of iterations: 335 
number of iterations: 334 
number of iterations: 333 
   14400    14.740712      125          125 1.1451704e-13          0.1    1.3460723        1e-20    42.149352 
number of iterations: 333 
number of iterations: 333 
number of iterations: 333 
   14760    14.962574      132          132 1.2032998e-13          0.1    1.4208934        1e-20    42.045866 
number of iterations: 333 
number of iterations: 332 
number of iterations: 332 
number of iterations: 332 
   15120    15.385987      138          138 1.2854214e-13          0.1    1.5265953        1e-20    41.899673 
number of iterations: 331 
number of iterations: 331 
number of iterations: 331 
   15480    15.624289      141          141 1.3506701e-13          0.1    1.6105799        1e-20    41.783519 
number of iterations: 330 
number of iterations: 330 
number of iterations: 329 
number of iterations: 329 
   15840    15.903928      146          146 1.4428493e-13          0.1    1.7292282        1e-20    41.619429 
number of iterations: 329 
number of iterations: 329 
number of iterations: 329 
number of iterations: 328 
   16200    16.256859      156          156 1.5413194e-13          0.1    1.8559739        1e-20    41.444148 
number of iterations: 328 
number of iterations: 329 
number of iterations: 329 
   16560    16.570951      163          163 1.6195576e-13          0.1    1.9566776        1e-20     41.30489 
number of iterations: 328 
number of iterations: 328 
number of iterations: 328 
number of iterations: 328 
   16920    16.861434      174          174 1.7300875e-13          0.1    2.0989446        1e-20    41.108165 
number of iterations: 328 
number of iterations: 329 
number of iterations: 329 
   17280    17.107658      184          184 1.8179077e-13          0.1    2.2119809        1e-20    40.951862 
number of iterations: 327 
number of iterations: 324 
number of iterations: 324 
number of iterations: 324 
   17640    17.575756      208          208 1.9419744e-13          0.1    2.3716717        1e-20    40.731049 
number of iterations: 324 
number of iterations: 324 
number of iterations: 324 
number of iterations: 324 
   18000    17.932784      224          224 2.0745083e-13          0.1    2.5422597        1e-20    40.495181 
number of iterations: 324 
number of iterations: 325 
number of iterations: 325 
   18360    18.163664      240          240 2.1798114e-13          0.1     2.677799        1e-20    40.307779 
number of iterations: 326 
number of iterations: 326 
number of iterations: 326 
number of iterations: 326 
   18720    18.549647      255          255 2.328577e-13          0.1    2.8692793        1e-20    40.043041 
number of iterations: 326 
number of iterations: 326 
number of iterations: 325 
   19080    18.867463      262          262 2.4467768e-13          0.1    3.0214179        1e-20    39.832699 
number of iterations: 325 
number of iterations: 325 
number of iterations: 326 
number of iterations: 326 
   19440    19.156912      273          273 2.6137619e-13          0.1      3.23635        1e-20    39.535551 
number of iterations: 326 
number of iterations: 326 
number of iterations: 326 
number of iterations: 326 
   19800    19.534303      291          291 2.7921432e-13          0.1    3.4659494        1e-20    39.218135 
number of iterations: 325 
number of iterations: 325 
number of iterations: 325 
   20160    19.859354      305          305 2.9338739e-13          0.1    3.6483733        1e-20    38.965943 
number of iterations: 325 
number of iterations: 325 
number of iterations: 325 
number of iterations: 324 
   20520    20.167078      319          319 3.1341019e-13          0.1    3.9060922        1e-20    38.609664 
number of iterations: 324 
number of iterations: 323 
number of iterations: 321 
   20880    20.461427      334          334 3.2931905e-13          0.1    4.1108611        1e-20    38.326589 
number of iterations: 323 
number of iterations: 322 
number of iterations: 323 
number of iterations: 323 
   21240    20.862868      366          366 3.5179408e-13          0.1    4.4001453        1e-20     37.92669 
number of iterations: 322 
number of iterations: 322 
number of iterations: 322 
number of iterations: 321 
   21600    21.172206      394          394 3.7580295e-13          0.1    4.7091718        1e-20     37.49951 
number of iterations: 321 
number of iterations: 321 
number of iterations: 321 
   21960    21.476731      419          419 3.9487891e-13          0.1    4.9547044        1e-20    37.160109 
number of iterations: 320 
number of iterations: 319 
number of iterations: 319 
number of iterations: 319 
   22320    21.861424      451          451 4.2182819e-13          0.1    5.3015776        1e-20     36.68063 
number of iterations: 319 
number of iterations: 320 
number of iterations: 318 
   22680    22.123459      477          477 4.432404e-13          0.1    5.5771806        1e-20    36.299675 
number of iterations: 317 
number of iterations: 317 
number of iterations: 316 
number of iterations: 316 
   23040    22.440622      509          509 4.7349021e-13          0.1    5.9665363        1e-20    35.761492 
number of iterations: 316 
number of iterations: 316 
number of iterations: 316 
number of iterations: 316 
   23400    22.862609      539          539 5.0580446e-13          0.1    6.3824669        1e-20    35.186586 
number of iterations: 316 
number of iterations: 316 
number of iterations: 316 
   23760    23.155193      555          555 5.3147936e-13          0.1    6.7129398        1e-20    34.729808 
number of iterations: 316 
number of iterations: 316 
number of iterations: 315 
number of iterations: 316 
   24120    23.491899      582          582 5.6775119e-13          0.1    7.1798112        1e-20    34.084513 
number of iterations: 315 
number of iterations: 314 
number of iterations: 314 
   24480    23.877134      621          621 5.9657053e-13          0.1    7.5507566        1e-20    33.571812 
number of iterations: 314 
number of iterations: 314 
number of iterations: 314 
number of iterations: 315 
   24840     24.28379      660          660 6.3728463e-13          0.1    8.0748034        1e-20    32.847513 
number of iterations: 314 
number of iterations: 314 
number of iterations: 313 
number of iterations: 313 
   25200    24.627598      711          711 6.8077734e-13          0.1    8.6346151        1e-20    32.073797 
number of iterations: 313 
number of iterations: 312 
number of iterations: 312 
   25560    24.957139      748          748 7.1533393e-13          0.1    9.0794075        1e-20    31.459058 
number of iterations: 310 
number of iterations: 309 
number of iterations: 309 
number of iterations: 309 
   25920    25.407382      805          805 7.6415325e-13          0.1    9.7077884        1e-20    30.590596 
number of iterations: 308 
number of iterations: 309 
number of iterations: 309 
   26280    25.692797      840          840 8.0294203e-13          0.1    10.207061        1e-20     29.90058 
number of iterations: 308 
number of iterations: 308 
number of iterations: 308 
number of iterations: 308 
   26640    26.098145      902          902 8.5774032e-13          0.1    10.912403        1e-20    28.925781 
number of iterations: 308 
number of iterations: 308 
number of iterations: 308 
number of iterations: 308 
   27000    26.497173      972          972 9.1627841e-13          0.1    11.665878        1e-20    27.884479 
number of iterations: 308 
number of iterations: 307 
number of iterations: 308 
   27360    26.795883     1024         1024 9.6278912e-13          0.1    12.264541        1e-20    27.057139 
number of iterations: 309 
number of iterations: 309 
number of iterations: 308 
number of iterations: 308 
   27720    27.327392     1090         1090 1.0284964e-12          0.1    13.110288        1e-20    25.888352 
number of iterations: 308 
number of iterations: 308 
number of iterations: 307 
   28080    27.656438     1132         1132 1.0807034e-12          0.1    13.782265        1e-20    24.959722 
number of iterations: 307 
number of iterations: 307 
number of iterations: 307 
number of iterations: 306 
   28440    28.106727     1212         1212 1.1544579e-12          0.1    14.731589        1e-20    23.647835 
number of iterations: 306 
number of iterations: 308 
number of iterations: 313 
number of iterations: 319 
   28800    28.580357     1287         1287 1.2332459e-12          0.1    15.745701        1e-20    22.246444 
number of iterations: 326 
number of iterations: 333 
number of iterations: 339 
   29160    28.956536     1344         1344 1.295846e-12          0.1     16.55145        1e-20    21.133006 
number of iterations: 346 
number of iterations: 352 
number of iterations: 358 
number of iterations: 365 
   29520    29.511472     1426         1426 1.3842832e-12          0.1    17.689763        1e-20    19.560037 
number of iterations: 372 
number of iterations: 379 
number of iterations: 387 
   29880     29.89774     1511         1511 1.4545499e-12          0.1      18.5942        1e-20    18.310271 
number of iterations: 396 
number of iterations: 405 
number of iterations: 414 
number of iterations: 424 
   30240    30.502058     1631         1631 1.553818e-12          0.1    19.871932        1e-20    16.544711 
number of iterations: 434 
number of iterations: 444 
number of iterations: 455 
number of iterations: 466 
   30600    30.991366     1746         1746 1.6598608e-12          0.1    21.236865        1e-20    14.658697 
number of iterations: 479 
number of iterations: 493 
number of iterations: 512 
   30960    31.410101     1834         1834 1.7441156e-12          0.1    22.321352        1e-20     13.16022 
number of iterations: 533 
number of iterations: 554 
number of iterations: 576 
number of iterations: 600 
   31320    32.020513     1974         1974 1.8631452e-12          0.1    23.853443        1e-20    11.043323 
number of iterations: 623 
number of iterations: 649 
number of iterations: 678 
   31680     32.55799     2084         2084 1.9577184e-12          0.1    25.070749        1e-20    9.3614098 
number of iterations: 709 
number of iterations: 743 
number of iterations: 780 
number of iterations: 823 
   32040    33.331254     2203         2203 2.089049e-12          0.1     26.78932        1e-20    6.9869832 
number of iterations: 871 
number of iterations: 926 
number of iterations: 1026 
number of iterations: 1143 
   32400    34.243822     2340         2340 2.2316169e-12          0.1    28.624413        1e-20    4.4516605 
number of iterations: 1260 
number of iterations: 1383 
number of iterations: 1521 
   32760    35.136815     2466         2466 2.3426303e-12          0.1    30.081825        1e-20    2.4382034 
number of iterations: 1686 
number of iterations: 1918 
number of iterations: 2470 
number of iterations: 5174 
Fix halt 10 condition met on step 33100 with value 1e-20 (../fix_halt.cpp:203)
Loop time of 37.0602 on 12 procs for 33100 steps with 2612 atoms

Performance: 771673746.241 tau/day, 893.141 timesteps/s
50.4% CPU use with 12 MPI tasks x no OpenMP threads

MPI task timing breakdown:
Section |  min time  |  avg time  |  max time  |%varavg| %total
---------------------------------------------------------------
Pair    | 0.027975   | 0.099541   | 0.28548    |  22.2 |  0.27
Neigh   | 0.0077627  | 0.038061   | 0.10752    |  14.3 |  0.10
Comm    | 0.13026    | 0.46917    | 0.80937    |  31.3 |  1.27
Output  | 2.0015     | 2.0021     | 2.0054     |   0.1 |  5.40
Modify  | 33.182     | 33.654     | 34.085     |   4.2 | 90.81
Other   |            | 0.7972     |            |       |  2.15

Nlocal:    217.667 ave 692 max 0 min
Histogram: 5 0 0 2 3 1 0 0 0 1
Nghost:    55.1667 ave 108 max 3 min
Histogram: 2 0 0 2 3 1 1 0 2 1
Neighs:    758.833 ave 2675 max 0 min
Histogram: 5 0 1 4 1 0 0 0 0 1

Total # of neighbors = 9106
Ave neighs/atom = 3.48622
Neighbor list builds = 716
Dangerous builds = 0
shell cd ..
clear
next sucRatio
jump SELF
# NUFEB simulation

atom_style	bio
atom_modify	map array sort 1000 5.0e-7
boundary	ff ff ff
newton		off
processors  * * 1

comm_modify	vel yes
read_data_bio sucrose_atom.in
  orthogonal box = (0 0 0) to (0.0001 0.0001 1e-05)
  4 by 3 by 1 MPI processor grid
  reading atoms ...
  10 atoms
  4 nutrients

##############Define initial particle distribution##############

lattice sc 1e-6 origin 0 0 0
Lattice spacing in x,y,z = 100 100 100
region reg block 0 1000 0 1000 0 100

group CYANO type 1
10 atoms in group CYANO

neighbor	5e-7 bin
neigh_modify	delay 0 one 5000

##############Define DEM Variables&Commands##############

pair_style  gran/hooke/history 1.e-4 NULL 1.e-5 NULL 0.0 1
pair_coeff  * *

timestep 10

fix 1 all nve/limit 1e-8
fix fv all viscous 1e-5

fix zw all wall/gran hooke/history 2000 NULL 500.0 NULL 1.5 0 zplane  0.0  1e-05

variable kanc equal 50

#fix zwa all walladh v_kanc zplane  0.0  1e-04

variable ke equal 5e+10
#fix j1 all epsadh 1 v_ke 1

##############Define IBm Variables##############

#variables used in fix eps_extract
variable EPSdens equal 30
variable EPSratio equal 1.3

#variables used in fix division
variable divDia equal 1.94e-6

#variable used for sucrose export
variable sucRatio index 0.0 0.1 0.2 0.3 0.4 0.5 0.6 0.7 0.8 0.9 1.0

#variables used in fix kinetics
variable diffT equal 1e-4
variable tol equal 1e-11
variable etaHET equal 0.6
variable layer equal -1

#variables used in fix death
#variable deadDia equal 9e-7


##############Define IBm Commands##############

fix k1 all kinetics 100 50 50 5 v_diffT v_layer niter 1000000
fix kgm all kinetics/growth/monod sucexp ${sucRatio}#gflag 1
fix kgm all kinetics/growth/monod sucexp 0.1
fix g1 all kinetics/diffusion v_tol
fix d1 all divide 100 v_EPSdens v_divDia 64564
#fix d2 all death 1 v_deadDia demflag 0


##############Define IBm Computes##############

compute myNtypes all ntypes
compute myMass all biomass
compute myCon all avg_con


##############Simulation exit condition##############
variable co2 equal c_myCon[4]
fix 10 all halt 1 v_co2 <= 1e-19

variable light equal c_myCon[1]
fix 11 all halt 1 v_light <= 1e-19


##############Simulation Output##############

dump		id all custom 360 output.lammmps id type diameter x y z
dump		du1 all vtk 360 atom_*.vtu id type diameter x y z
dump		du2 all grid 360 grid_%_*.vti con
dump        du3 all bio 360 ntypes biomass avg_con
thermo_style    custom step cpu atoms c_myNtypes[*] c_myMass[*] c_myCon[*]
thermo		360
thermo_modify	lost ignore

shell mkdir Sucrose_${sucRatio}
shell mkdir Sucrose_0.1
shell cd Sucrose_${sucRatio}
shell cd Sucrose_0.1
run 35000
Model is defined as a closed system. 
Neighbor list info ...
  update every 1 steps, delay 0 steps, check yes
  max neighbors/atom: 5000, page size: 100000
  master list distance cutoff = 2.43e-06
  ghost atom cutoff = 2.43e-06
  binsize = 1.215e-06, bins = 83 83 9
  1 neighbor lists, perpetual/occasional/extra = 1 0 0
  (1) pair gran/hooke/history, perpetual
      attributes: half, newton off, size, history
      pair build: half/size/bin/newtoff
      stencil: half/bin/3d/newtoff
      bin: standard
Per MPI rank memory allocation (min/avg/max) = 11 | 11.75 | 12.13 Mbytes
Step CPU Atoms c_myNtypes[1] c_myMass[1] c_myCon[1] c_myCon[2] c_myCon[3] c_myCon[4] 
       0            0       10           10 1.0633829e-14          0.1        0.009        1e-20           44 
number of iterations: 329743 
number of iterations: 6124 
number of iterations: 4538 
     360     48.94083       11           11 1.1162637e-14          0.1  0.018720721  0.002563439     43.98651 
number of iterations: 3307 
number of iterations: 2930 
number of iterations: 2588 
number of iterations: 2332 
     720    51.370504       15           15 1.1908846e-14          0.1  0.032438151 0.0061419904    43.967481 
number of iterations: 2125 
number of iterations: 1960 
number of iterations: 1837 
    1080    52.860722       16           16 1.2501059e-14          0.1  0.043325009 0.0089818658    43.952388 
number of iterations: 1740 
number of iterations: 1659 
number of iterations: 1592 
number of iterations: 1536 
    1440    54.481689       16           16 1.333674e-14          0.1  0.058688168  0.012989177    43.931092 
number of iterations: 1486 
number of iterations: 1442 
number of iterations: 1403 
number of iterations: 1368 
    1800     55.77905       16           16 1.4228284e-14          0.1  0.075078777  0.017264335    43.908375 
number of iterations: 1336 
number of iterations: 1307 
number of iterations: 1280 
    2160    56.763075       16           16 1.4935841e-14          0.1  0.088087119  0.020657218    43.890347 
number of iterations: 1256 
number of iterations: 1233 
number of iterations: 1213 
number of iterations: 1193 
    2520    57.863014       17           17 1.5934283e-14          0.1   0.10644352  0.025444933    43.864911 
number of iterations: 1175 
number of iterations: 1160 
number of iterations: 1145 
    2880    58.726034       18           18 1.6726677e-14          0.1   0.12101162  0.029244576    43.844728 
number of iterations: 1130 
number of iterations: 1116 
number of iterations: 1104 
number of iterations: 1091 
    3240    59.775728       18           18 1.7844835e-14          0.1   0.14156901  0.034606293    43.816251 
number of iterations: 1080 
number of iterations: 1069 
number of iterations: 1058 
number of iterations: 1048 
    3600    60.834527       18           18 1.903774e-14          0.1   0.16350093  0.040326436    43.785871 
number of iterations: 1039 
number of iterations: 1030 
number of iterations: 1021 
    3960    61.769779       18           18 1.9984466e-14          0.1   0.18090696  0.044866115    43.761763 
number of iterations: 1013 
number of iterations: 1005 
number of iterations: 998 
number of iterations: 983 
    4320    62.718136       19           19 2.1320403e-14          0.1   0.20546923   0.05127213    43.727747 
number of iterations: 976 
number of iterations: 936 
number of iterations: 930 
    4680    63.456419       21           21 2.2380642e-14          0.1   0.22496259  0.056356115    43.700755 
number of iterations: 923 
number of iterations: 917 
number of iterations: 913 
number of iterations: 908 
    5040    64.313782       27           27 2.3876761e-14          0.1   0.25246992  0.063530154    43.662675 
number of iterations: 903 
number of iterations: 898 
number of iterations: 893 
number of iterations: 885 
    5400    65.169483       31           31 2.5472893e-14          0.1   0.28181665  0.071183769     43.62204 
number of iterations: 880 
number of iterations: 875 
number of iterations: 871 
    5760    65.842178       31           31 2.6739631e-14          0.1   0.30510723   0.07725791    43.589791 
number of iterations: 867 
number of iterations: 862 
number of iterations: 858 
number of iterations: 854 
    6120    66.741858       32           32 2.8527142e-14          0.1   0.33797301  0.085829213    43.544288 
number of iterations: 851 
number of iterations: 847 
number of iterations: 843 
    6480    67.385696       32           32 2.9945765e-14          0.1   0.36405627  0.092631656    43.508177 
number of iterations: 840 
number of iterations: 836 
number of iterations: 833 
number of iterations: 830 
    6840    68.275921       34           34 3.1947602e-14          0.1    0.4008631   0.10223068    43.457232 
number of iterations: 827 
number of iterations: 823 
number of iterations: 820 
number of iterations: 817 
    7200    69.130637       36           36 3.408326e-14          0.1   0.44013121   0.11247142    43.402885 
number of iterations: 815 
number of iterations: 812 
number of iterations: 809 
    7560    69.722827       36           36 3.5778182e-14          0.1   0.47129575   0.12059879    43.359757 
number of iterations: 807 
number of iterations: 804 
number of iterations: 802 
number of iterations: 799 
    7920     70.60072       36           36 3.816991e-14          0.1   0.51527261   0.13206742    43.298901 
number of iterations: 797 
number of iterations: 795 
number of iterations: 792 
    8280     71.21896       36           36 4.0068056e-14          0.1   0.55017408   0.14116928    43.250605 
number of iterations: 793 
number of iterations: 791 
number of iterations: 789 
number of iterations: 787 
    8640    71.983911       38           38 4.2746556e-14          0.1   0.59942364     0.154013    43.182459 
number of iterations: 789 
number of iterations: 796 
number of iterations: 794 
number of iterations: 793 
    9000    72.754057       49           49 4.5604111e-14          0.1   0.65196551   0.16771534    43.109765 
number of iterations: 792 
number of iterations: 790 
number of iterations: 788 
    9360    73.467538       52           52 4.7871952e-14          0.1   0.69366442   0.17858997    43.052071 
number of iterations: 787 
number of iterations: 782 
number of iterations: 781 
number of iterations: 779 
    9720    74.345928       59           59 5.1072132e-14          0.1   0.75250595   0.19393526    42.970658 
number of iterations: 779 
number of iterations: 773 
number of iterations: 772 
   10080    74.894412       61           61 5.3611892e-14          0.1   0.79920427   0.20611374    42.906044 
number of iterations: 770 
number of iterations: 769 
number of iterations: 768 
number of iterations: 766 
   10440     75.83115       65           65 5.7195781e-14          0.1   0.86510129   0.22329897    42.814871 
number of iterations: 765 
number of iterations: 764 
number of iterations: 763 
number of iterations: 761 
   10800    76.674847       66           66 6.1019248e-14          0.1   0.93540391   0.24163304     42.71761 
number of iterations: 760 
number of iterations: 759 
number of iterations: 758 
   11160    77.202105       67           67 6.4053666e-14          0.1   0.99119863   0.25618353    42.640424 
number of iterations: 757 
number of iterations: 756 
number of iterations: 755 
number of iterations: 754 
   11520     78.02845       72           72 6.8335574e-14          0.1    1.0699305   0.27671591    42.531512 
number of iterations: 754 
number of iterations: 753 
number of iterations: 745 
   11880     78.69568       73           73 7.1733825e-14          0.1    1.1324143   0.29301101    42.445079 
number of iterations: 745 
number of iterations: 744 
number of iterations: 747 
number of iterations: 746 
   12240    79.367563       75           75 7.6529142e-14          0.1    1.2205877   0.31600538    42.323114 
number of iterations: 745 
number of iterations: 741 
number of iterations: 740 
number of iterations: 739 
   12600    80.075402       76           76 8.164502e-14          0.1    1.3146558   0.34053691    42.193002 
number of iterations: 739 
number of iterations: 734 
number of iterations: 733 
   12960     80.67152       82           82 8.5705135e-14          0.1    1.3893107   0.36000582    42.089746 
number of iterations: 732 
number of iterations: 732 
number of iterations: 735 
number of iterations: 740 
   13320    81.398743       95           95 9.1434417e-14          0.1    1.4946601    0.3874789    41.944039 
number of iterations: 736 
number of iterations: 731 
number of iterations: 733 
   13680    81.976849      108          108 9.5981347e-14          0.1    1.5782701   0.40928249    41.828402 
number of iterations: 732 
number of iterations: 729 
number of iterations: 729 
number of iterations: 728 
   14040     82.69371      114          114 1.0239758e-13          0.1    1.6962522   0.44004974    41.665233 
number of iterations: 727 
number of iterations: 726 
number of iterations: 726 
number of iterations: 726 
   14400    83.437905      120          120 1.0924273e-13          0.1    1.8221218   0.47287381    41.491163 
number of iterations: 725 
number of iterations: 725 
number of iterations: 723 
   14760    84.026718      126          126 1.1467525e-13          0.1    1.9220151   0.49892392    41.353023 
number of iterations: 718 
number of iterations: 717 
number of iterations: 717 
number of iterations: 716 
   15120    84.732999      134          134 1.2234115e-13          0.1    2.0629754   0.53568346    41.158098 
number of iterations: 716 
number of iterations: 718 
number of iterations: 717 
   15480    85.409061      138          138 1.2842503e-13          0.1     2.174845   0.56485689    41.003405 
number of iterations: 716 
number of iterations: 715 
number of iterations: 715 
number of iterations: 714 
   15840    86.193224      142          142 1.3701008e-13          0.1     2.332706   0.60602396     40.78512 
number of iterations: 714 
number of iterations: 713 
number of iterations: 713 
number of iterations: 713 
   16200    86.868169      147          147 1.4616904e-13          0.1    2.5011207   0.64994308    40.552248 
number of iterations: 712 
number of iterations: 712 
number of iterations: 711 
   16560    87.483536      156          156 1.5343786e-13          0.1    2.6347796   0.68479854    40.367442 
number of iterations: 711 
number of iterations: 710 
number of iterations: 709 
number of iterations: 708 
   16920    88.231959      164          164 1.6369499e-13          0.1    2.8233861   0.73398338    40.106674 
number of iterations: 704 
number of iterations: 704 
number of iterations: 704 
   17280    89.133348      173          173 1.7183535e-13          0.1    2.9730698    0.7730179    39.899727 
number of iterations: 704 
number of iterations: 701 
number of iterations: 701 
number of iterations: 702 
   17640    90.094372      186          186 1.8332233e-13          0.1    3.1842876   0.82809981    39.607711 
number of iterations: 700 
number of iterations: 697 
number of iterations: 698 
number of iterations: 695 
   18000    90.968504      209          209 1.955772e-13          0.1     3.409625   0.88686397    39.296178 
number of iterations: 694 
number of iterations: 695 
number of iterations: 695 
   18360    91.894281      222          222 2.0530303e-13          0.1    3.5884585   0.93350088    39.048944 
number of iterations: 694 
number of iterations: 694 
number of iterations: 692 
number of iterations: 690 
   18720    92.818514      242          242 2.1902727e-13          0.1    3.8408165   0.99931117    38.700069 
number of iterations: 688 
number of iterations: 688 
number of iterations: 688 
   19080    93.626273      253          253 2.2991925e-13          0.1    4.0410949    1.0515401    38.423197 
number of iterations: 686 
number of iterations: 685 
number of iterations: 685 
number of iterations: 685 
   19440     94.63798      263          263 2.4528906e-13          0.1    4.3237113    1.1252412    38.032504 
number of iterations: 684 
number of iterations: 684 
number of iterations: 684 
number of iterations: 683 
   19800    95.691939      273          273 2.6168632e-13          0.1    4.6252233    1.2038692    37.615701 
number of iterations: 683 
number of iterations: 682 
number of iterations: 681 
   20160     96.40769      280          280 2.7469968e-13          0.1    4.8645129    1.2662709    37.284919 
number of iterations: 680 
number of iterations: 678 
number of iterations: 676 
number of iterations: 670 
   20520     97.39679      305          305  2.93063e-13          0.1    5.2021756    1.3543264    36.818161 
number of iterations: 670 
number of iterations: 670 
number of iterations: 670 
   20880    98.198872      311          311 3.0763669e-13          0.1    5.4701542    1.4242098    36.447736 
number of iterations: 670 
number of iterations: 670 
number of iterations: 668 
number of iterations: 666 
   21240    99.094446      331          331 3.2820181e-13          0.1     5.848302    1.5228231    35.925034 
number of iterations: 667 
number of iterations: 667 
number of iterations: 666 
number of iterations: 664 
   21600    99.795291      364          364 3.5014168e-13          0.1    6.2517276    1.6280286    35.367401 
number of iterations: 664 
number of iterations: 663 
number of iterations: 663 
   21960    100.33902      383          383 3.6755381e-13          0.1     6.571896    1.7115224    34.924861 
number of iterations: 661 
number of iterations: 662 
number of iterations: 660 
number of iterations: 659 
   22320    101.12908      416          416 3.9212431e-13          0.1    7.0236914    1.8293418    34.300397 
number of iterations: 660 
number of iterations: 660 
number of iterations: 658 
   22680    101.73841      441          441 4.1162419e-13          0.1    7.3822482    1.9228466    33.804813 
number of iterations: 657 
number of iterations: 656 
number of iterations: 654 
number of iterations: 654 
   23040    102.48606      471          471 4.3914074e-13          0.1      7.88821    2.0547921    33.105505 
number of iterations: 651 
number of iterations: 649 
number of iterations: 649 
number of iterations: 648 
   23400    103.31406      505          505 4.6849672e-13          0.1    8.4279965    2.1955581    32.359461 
number of iterations: 649 
number of iterations: 650 
number of iterations: 650 
   23760    104.04874      527          527 4.9179451e-13          0.1    8.8563883    2.3072741    31.767387 
number of iterations: 648 
number of iterations: 647 
number of iterations: 648 
number of iterations: 648 
   24120    105.03082      553          553 5.2467032e-13          0.1    9.4609006    2.4649184    30.931909 
number of iterations: 646 
number of iterations: 644 
number of iterations: 645 
   24480    105.75448      569          569 5.5076155e-13          0.1    9.9406594    2.5900296    30.268859 
number of iterations: 643 
number of iterations: 640 
number of iterations: 640 
number of iterations: 640 
   24840    106.74343      610          610 5.8757922e-13          0.1    10.617656    2.7665759    29.333231 
number of iterations: 639 
number of iterations: 639 
number of iterations: 638 
number of iterations: 638 
   25200    107.68368      650          650 6.2685809e-13          0.1    11.339909    2.9549239    28.335072 
number of iterations: 638 
number of iterations: 639 
number of iterations: 634 
   25560    108.45165      683          683 6.5803098e-13          0.1    11.913109    3.1044024    27.542918 
number of iterations: 633 
number of iterations: 635 
number of iterations: 636 
number of iterations: 635 
   25920      109.451      731          731 7.0201945e-13          0.1    12.721968    3.3153343    26.425103 
number of iterations: 634 
number of iterations: 631 
number of iterations: 629 
   26280    110.23942      776          776 7.3693001e-13          0.1    13.363903    3.4827363    25.537982 
number of iterations: 629 
number of iterations: 628 
number of iterations: 624 
number of iterations: 625 
   26640    111.28698      825          825 7.8619274e-13          0.1     14.26974    3.7189588    24.286184 
number of iterations: 623 
number of iterations: 623 
number of iterations: 623 
number of iterations: 620 
   27000    112.27397      888          888 8.387486e-13          0.1     15.23613    3.9709725    22.950727 
number of iterations: 619 
number of iterations: 618 
number of iterations: 618 
   27360    113.10227      931          931 8.804585e-13          0.1    16.003089    4.1709783    21.890884 
number of iterations: 617 
number of iterations: 616 
number of iterations: 612 
number of iterations: 610 
   27720    114.06048     1000         1000 9.3931585e-13          0.1    17.085345    4.4532081    20.395361 
number of iterations: 607 
number of iterations: 605 
number of iterations: 603 
   28080    114.91964     1042         1042 9.8602678e-13          0.1    17.944256    4.6771941    19.208489 
number of iterations: 603 
number of iterations: 601 
number of iterations: 598 
number of iterations: 596 
   28440    115.98626     1111         1111 1.0519411e-12          0.1    19.156282    4.9932636    17.533705 
number of iterations: 594 
number of iterations: 591 
number of iterations: 589 
number of iterations: 588 
   28800    116.99373     1179         1179 1.1222617e-12          0.1    20.449326    5.3304615    15.747003 
number of iterations: 586 
number of iterations: 584 
number of iterations: 584 
   29160    117.92325     1235         1235 1.1780702e-12          0.1    21.475526    5.5980717    14.329046 
number of iterations: 580 
number of iterations: 580 
number of iterations: 582 
number of iterations: 576 
   29520    118.88518     1304         1304 1.2568221e-12          0.1    22.923606    5.9756991    12.328192 
number of iterations: 574 
number of iterations: 589 
number of iterations: 614 
   29880    119.50841     1374         1374 1.3193218e-12          0.1    24.072839     6.275394    10.740296 
number of iterations: 640 
number of iterations: 667 
number of iterations: 697 
number of iterations: 730 
   30240    120.46039     1454         1454 1.4075158e-12          0.1    25.694536    6.6982964    8.4996516 
number of iterations: 766 
number of iterations: 805 
number of iterations: 846 
number of iterations: 895 
   30600    121.47455     1571         1571 1.5016048e-12          0.1    27.424649    7.1494681    6.1092958 
number of iterations: 953 
number of iterations: 1067 
number of iterations: 1184 
   30960    122.32515     1652         1652 1.5762759e-12          0.1     28.79771    7.5075288    4.2123146 
number of iterations: 1302 
number of iterations: 1431 
number of iterations: 1576 
number of iterations: 1751 
   31320    123.85098     1765         1765 1.6816415e-12          0.1    30.735215    8.0127824    1.5356024 
number of iterations: 2049 
number of iterations: 2744 
number of iterations: 8980 
Fix halt 10 condition met on step 31600 with value 1e-20 (../fix_halt.cpp:203)
Loop time of 126.213 on 12 procs for 31600 steps with 1854 atoms

Performance: 216320859.855 tau/day, 250.371 timesteps/s
52.8% CPU use with 12 MPI tasks x no OpenMP threads

MPI task timing breakdown:
Section |  min time  |  avg time  |  max time  |%varavg| %total
---------------------------------------------------------------
Pair    | 0.027175   | 0.071658   | 0.18065    |  15.8 |  0.06
Neigh   | 0.0070047  | 0.025784   | 0.069282   |  11.0 |  0.02
Comm    | 0.11004    | 0.45538    | 0.84829    |  33.8 |  0.36
Output  | 2.0879     | 2.0885     | 2.0914     |   0.1 |  1.65
Modify  | 122.33     | 122.69     | 123.11     |   2.1 | 97.21
Other   |            | 0.8791     |            |       |  0.70

Nlocal:    154.5 ave 490 max 0 min
Histogram: 5 0 0 2 3 1 0 0 0 1
Nghost:    36 ave 66 max 0 min
Histogram: 2 0 0 1 2 2 2 0 0 3
Neighs:    471.167 ave 1655 max 0 min
Histogram: 5 0 1 3 2 0 0 0 0 1

Total # of neighbors = 5654
Ave neighs/atom = 3.04962
Neighbor list builds = 642
Dangerous builds = 0
shell cd ..
clear
next sucRatio
jump SELF
# NUFEB simulation

atom_style	bio
atom_modify	map array sort 1000 5.0e-7
boundary	ff ff ff
newton		off
processors  * * 1

comm_modify	vel yes
read_data_bio sucrose_atom.in
  orthogonal box = (0 0 0) to (0.0001 0.0001 1e-05)
  4 by 3 by 1 MPI processor grid
  reading atoms ...
  10 atoms
  4 nutrients

##############Define initial particle distribution##############

lattice sc 1e-6 origin 0 0 0
Lattice spacing in x,y,z = 100 100 100
region reg block 0 1000 0 1000 0 100

group CYANO type 1
10 atoms in group CYANO

neighbor	5e-7 bin
neigh_modify	delay 0 one 5000

##############Define DEM Variables&Commands##############

pair_style  gran/hooke/history 1.e-4 NULL 1.e-5 NULL 0.0 1
pair_coeff  * *

timestep 10

fix 1 all nve/limit 1e-8
fix fv all viscous 1e-5

fix zw all wall/gran hooke/history 2000 NULL 500.0 NULL 1.5 0 zplane  0.0  1e-05

variable kanc equal 50

#fix zwa all walladh v_kanc zplane  0.0  1e-04

variable ke equal 5e+10
#fix j1 all epsadh 1 v_ke 1

##############Define IBm Variables##############

#variables used in fix eps_extract
variable EPSdens equal 30
variable EPSratio equal 1.3

#variables used in fix division
variable divDia equal 1.94e-6

#variable used for sucrose export
variable sucRatio index 0.0 0.1 0.2 0.3 0.4 0.5 0.6 0.7 0.8 0.9 1.0

#variables used in fix kinetics
variable diffT equal 1e-4
variable tol equal 1e-11
variable etaHET equal 0.6
variable layer equal -1

#variables used in fix death
#variable deadDia equal 9e-7


##############Define IBm Commands##############

fix k1 all kinetics 100 50 50 5 v_diffT v_layer niter 1000000
fix kgm all kinetics/growth/monod sucexp ${sucRatio}#gflag 1
fix kgm all kinetics/growth/monod sucexp 0.2
fix g1 all kinetics/diffusion v_tol
fix d1 all divide 100 v_EPSdens v_divDia 64564
#fix d2 all death 1 v_deadDia demflag 0


##############Define IBm Computes##############

compute myNtypes all ntypes
compute myMass all biomass
compute myCon all avg_con


##############Simulation exit condition##############
variable co2 equal c_myCon[4]
fix 10 all halt 1 v_co2 <= 1e-19

variable light equal c_myCon[1]
fix 11 all halt 1 v_light <= 1e-19


##############Simulation Output##############

dump		id all custom 360 output.lammmps id type diameter x y z
dump		du1 all vtk 360 atom_*.vtu id type diameter x y z
dump		du2 all grid 360 grid_%_*.vti con
dump        du3 all bio 360 ntypes biomass avg_con
thermo_style    custom step cpu atoms c_myNtypes[*] c_myMass[*] c_myCon[*]
thermo		360
thermo_modify	lost ignore

shell mkdir Sucrose_${sucRatio}
shell mkdir Sucrose_0.2
shell cd Sucrose_${sucRatio}
shell cd Sucrose_0.2
run 35000
Model is defined as a closed system. 
Neighbor list info ...
  update every 1 steps, delay 0 steps, check yes
  max neighbors/atom: 5000, page size: 100000
  master list distance cutoff = 2.43e-06
  ghost atom cutoff = 2.43e-06
  binsize = 1.215e-06, bins = 83 83 9
  1 neighbor lists, perpetual/occasional/extra = 1 0 0
  (1) pair gran/hooke/history, perpetual
      attributes: half, newton off, size, history
      pair build: half/size/bin/newtoff
      stencil: half/bin/3d/newtoff
      bin: standard
Per MPI rank memory allocation (min/avg/max) = 11 | 11.75 | 12.13 Mbytes
Step CPU Atoms c_myNtypes[1] c_myMass[1] c_myCon[1] c_myCon[2] c_myCon[3] c_myCon[4] 
       0            0       10           10 1.0633829e-14          0.1        0.009        1e-20           44 
number of iterations: 329743 
number of iterations: 6123 
number of iterations: 4537 
     360    49.538044       11           11 1.1151674e-14          0.1  0.021493844 0.0051251987     43.98267 
number of iterations: 3306 
number of iterations: 2928 
number of iterations: 2587 
number of iterations: 2330 
     720    51.561261       15           15 1.1881572e-14          0.1  0.039104333  0.012271712    43.958252 
number of iterations: 2124 
number of iterations: 1959 
number of iterations: 1835 
    1080    52.726809       16           16 1.2460179e-14          0.1  0.053064935  0.017936579    43.938904 
number of iterations: 1739 
number of iterations: 1658 
number of iterations: 1590 
number of iterations: 1534 
    1440    54.103255       16           16 1.3275722e-14          0.1  0.072743071  0.025921016    43.911637 
number of iterations: 1484 
number of iterations: 1441 
number of iterations: 1401 
number of iterations: 1366 
    1800    55.323197       16           16 1.4144643e-14          0.1  0.093709777  0.034427977    43.882587 
number of iterations: 1334 
number of iterations: 1305 
number of iterations: 1278 
    2160    56.241426       16           16 1.4833457e-14          0.1   0.11033091  0.041171619     43.85956 
number of iterations: 1254 
number of iterations: 1231 
number of iterations: 1211 
number of iterations: 1191 
    2520    57.272396       17           17 1.5804336e-14          0.1   0.13375849  0.050676677    43.827108 
number of iterations: 1173 
number of iterations: 1157 
number of iterations: 1142 
    2880    58.029155       18           18 1.6573973e-14          0.1   0.15233008  0.058211507    43.801386 
number of iterations: 1128 
number of iterations: 1114 
number of iterations: 1101 
number of iterations: 1089 
    3240    59.043765       18           18 1.7658771e-14          0.1   0.17850663  0.068831754    43.765134 
number of iterations: 1077 
number of iterations: 1066 
number of iterations: 1056 
number of iterations: 1046 
    3600    59.957908       18           18 1.8814572e-14          0.1   0.20639687  0.080147119    43.726511 
number of iterations: 1037 
number of iterations: 1027 
number of iterations: 1019 
    3960    60.671711       18           18 1.9730801e-14          0.1   0.22850636  0.089117075    43.695896 
number of iterations: 1011 
number of iterations: 1003 
number of iterations: 995 
number of iterations: 988 
    4320    61.495377       18           18 2.102222e-14          0.1   0.25966985   0.10176017    43.652747 
number of iterations: 973 
number of iterations: 967 
number of iterations: 927 
    4680    62.122652       21           21 2.2045958e-14          0.1   0.28437435   0.11178266    43.618546 
number of iterations: 920 
number of iterations: 914 
number of iterations: 908 
number of iterations: 904 
    5040    62.932205       27           27 2.3488908e-14          0.1    0.3191946   0.12590915    43.570349 
number of iterations: 900 
number of iterations: 895 
number of iterations: 890 
number of iterations: 885 
    5400    63.668296       29           29 2.5026302e-14          0.1   0.35629467   0.14096023    43.518996 
number of iterations: 877 
number of iterations: 872 
number of iterations: 868 
    5760    64.255344       31           31 2.6245029e-14          0.1   0.38570496   0.15289158    43.478285 
number of iterations: 863 
number of iterations: 859 
number of iterations: 855 
number of iterations: 851 
    6120    65.015266       31           31 2.7962817e-14          0.1    0.4271588   0.16970873    43.420906 
number of iterations: 847 
number of iterations: 843 
number of iterations: 840 
    6480    65.594591       32           32 2.9324546e-14          0.1   0.46002015   0.18304007    43.375423 
number of iterations: 836 
number of iterations: 833 
number of iterations: 829 
number of iterations: 826 
    6840    66.357026       34           34 3.1243894e-14          0.1    0.5063383    0.2018305    43.311325 
number of iterations: 823 
number of iterations: 820 
number of iterations: 817 
number of iterations: 814 
    7200    67.135632       36           36 3.3288866e-14          0.1   0.55568915   0.22185086    43.243037 
number of iterations: 811 
number of iterations: 808 
number of iterations: 806 
    7560    67.637537       36           36 3.4909963e-14          0.1   0.59481102   0.23772148    43.188906 
number of iterations: 803 
number of iterations: 800 
number of iterations: 798 
number of iterations: 795 
    7920    68.346882       36           36 3.7194887e-14          0.1   0.64995321     0.260091    43.112612 
number of iterations: 793 
number of iterations: 791 
number of iterations: 788 
    8280    68.909428       36           36 3.9006199e-14          0.1   0.69366586   0.27782385    43.052135 
number of iterations: 786 
number of iterations: 784 
number of iterations: 785 
number of iterations: 783 
    8640    69.665253       37           37 4.1559229e-14          0.1   0.75527831   0.30281813    42.966897 
number of iterations: 781 
number of iterations: 779 
number of iterations: 781 
number of iterations: 788 
    9000    70.388963       44           44 4.427936e-14          0.1    0.8209236   0.32944835    42.876085 
number of iterations: 789 
number of iterations: 787 
number of iterations: 786 
    9360    70.912649       50           50 4.6435671e-14          0.1   0.87296165   0.35055877    42.804102 
number of iterations: 784 
number of iterations: 782 
number of iterations: 781 
number of iterations: 777 
    9720     71.68352       56           56 4.9474974e-14          0.1    0.9463093   0.38031382    42.702641 
number of iterations: 776 
number of iterations: 774 
number of iterations: 774 
   10080    72.324899       60           60  5.18843e-14          0.1    1.0044532   0.40390125    42.622211 
number of iterations: 768 
number of iterations: 767 
number of iterations: 766 
number of iterations: 764 
   10440    73.038867       61           61 5.5280226e-14          0.1    1.0864069    0.4371476    42.508847 
number of iterations: 763 
number of iterations: 762 
number of iterations: 761 
number of iterations: 759 
   10800    73.744821       65           65 5.8898422e-14          0.1    1.1737251      0.47257     42.38807 
number of iterations: 758 
number of iterations: 757 
number of iterations: 756 
   11160    74.346325       66           66 6.176665e-14          0.1    1.2429448   0.50065022     42.29233 
number of iterations: 755 
number of iterations: 754 
number of iterations: 753 
number of iterations: 752 
   11520    75.060885       69           69 6.5809394e-14          0.1      1.34051   0.54022912    42.157391 
number of iterations: 751 
number of iterations: 750 
number of iterations: 749 
   11880     75.62735       72           72 6.9014172e-14          0.1    1.4178511   0.57160418    42.050426 
number of iterations: 748 
number of iterations: 746 
number of iterations: 740 
number of iterations: 739 
   12240    76.308478       73           73 7.3531281e-14          0.1    1.5268632   0.61582713    41.899662 
number of iterations: 740 
number of iterations: 739 
number of iterations: 739 
number of iterations: 739 
   12600     77.02106       76           76 7.8344043e-14          0.1    1.6430127   0.66294488    41.739032 
number of iterations: 738 
number of iterations: 737 
number of iterations: 736 
   12960    77.564313       76           76 8.2159231e-14          0.1    1.7350876   0.70029623    41.611701 
number of iterations: 735 
number of iterations: 732 
number of iterations: 731 
number of iterations: 731 
   13320    78.197913       85           85 8.7536708e-14          0.1    1.8648662    0.7529426    41.432236 
number of iterations: 729 
number of iterations: 728 
number of iterations: 728 
   13680    78.792815       99           99 9.1799559e-14          0.1     1.967748   0.79467697    41.289967 
number of iterations: 725 
number of iterations: 722 
number of iterations: 720 
number of iterations: 722 
   14040    79.493665      110          110 9.7808015e-14          0.1    2.1127575   0.85350098    41.089449 
number of iterations: 722 
number of iterations: 721 
number of iterations: 720 
number of iterations: 720 
   14400    80.181957      116          116 1.0420973e-13          0.1    2.2672582   0.91617524    40.875812 
number of iterations: 719 
number of iterations: 712 
number of iterations: 711 
   14760    80.698385      119          119 1.0928453e-13          0.1     2.389735   0.96585866    40.706459 
number of iterations: 712 
number of iterations: 712 
number of iterations: 710 
number of iterations: 709 
   15120    81.319783      127          127 1.1643741e-13          0.1    2.5623641    1.0358869    40.467766 
number of iterations: 709 
number of iterations: 708 
number of iterations: 707 
   15480    81.847368      133          133 1.2210766e-13          0.1    2.6992099    1.0913996    40.278558 
number of iterations: 707 
number of iterations: 707 
number of iterations: 707 
number of iterations: 703 
   15840    82.449533      139          139 1.3009984e-13          0.1    2.8920926    1.1696443    40.011877 
number of iterations: 703 
number of iterations: 702 
number of iterations: 702 
number of iterations: 701 
   16200    83.092806      141          141 1.3861512e-13          0.1    3.0975987    1.2530102    39.727751 
number of iterations: 700 
number of iterations: 699 
number of iterations: 699 
   16560    83.594426      147          147 1.4536537e-13          0.1    3.2605077    1.3190961    39.502524 
number of iterations: 698 
number of iterations: 698 
number of iterations: 698 
number of iterations: 697 
   16920    84.309683      157          157 1.5487981e-13          0.1    3.4901268    1.4122436    39.185078 
number of iterations: 697 
number of iterations: 696 
number of iterations: 695 
   17280    84.836525      164          164 1.6242213e-13          0.1    3.6721509    1.4860837    38.933439 
number of iterations: 693 
number of iterations: 688 
number of iterations: 689 
number of iterations: 687 
   17640    85.459818      174          174 1.7305296e-13          0.1    3.9287129    1.5901608    38.578762 
number of iterations: 687 
number of iterations: 685 
number of iterations: 684 
number of iterations: 685 
   18000    86.152942      188          188 1.843796e-13          0.1    4.2020679    1.7010501    38.200873 
number of iterations: 683 
number of iterations: 684 
number of iterations: 683 
   18360    86.645459      205          205 1.9335849e-13          0.1    4.4187636    1.7889549    37.901314 
number of iterations: 680 
number of iterations: 684 
number of iterations: 682 
number of iterations: 682 
   18720    87.318375      224          224 2.0601417e-13          0.1    4.7241946    1.9128559    37.479097 
number of iterations: 681 
number of iterations: 679 
number of iterations: 680 
   19080    87.837712      237          237 2.1604662e-13          0.1    4.9663189    2.0110753    37.144399 
number of iterations: 678 
number of iterations: 676 
number of iterations: 676 
number of iterations: 675 
   19440    88.482133      253          253 2.3018727e-13          0.1    5.3075914    2.1495147    36.672654 
number of iterations: 673 
number of iterations: 673 
number of iterations: 673 
number of iterations: 672 
   19800    89.205029      263          263 2.4525346e-13          0.1    5.6711988    2.2970151    36.170044 
number of iterations: 673 
number of iterations: 670 
number of iterations: 670 
   20160     89.67721      271          271 2.5719677e-13          0.1     5.959443    2.4139423    35.771617 
number of iterations: 670 
number of iterations: 669 
number of iterations: 669 
number of iterations: 668 
   20520    90.469856      280          280 2.7403078e-13          0.1    6.3657217    2.5787505    35.210045 
number of iterations: 669 
number of iterations: 669 
number of iterations: 668 
   20880    91.025864      299          299 2.8737549e-13          0.1    6.6877859    2.7093973    34.764886 
number of iterations: 665 
number of iterations: 668 
number of iterations: 666 
number of iterations: 665 
   21240    91.691177      311          311 3.0618474e-13          0.1    7.1417336    2.8935432    34.137446 
number of iterations: 665 
number of iterations: 663 
number of iterations: 662 
number of iterations: 661 
   21600    92.432942      330          330 3.262251e-13          0.1    7.6253896    3.0897413    33.468956 
number of iterations: 660 
number of iterations: 660 
number of iterations: 661 
   21960    92.942391      350          350 3.4211155e-13          0.1    8.0087926    3.2452716    32.939042 
number of iterations: 659 
number of iterations: 659 
number of iterations: 658 
number of iterations: 655 
   22320    93.685217      381          381 3.6450338e-13          0.1    8.5491973    3.4644903    32.192142 
number of iterations: 655 
number of iterations: 653 
number of iterations: 652 
   22680    94.190137      400          400 3.822539e-13          0.1    8.9775871      3.63827    31.600068 
number of iterations: 652 
number of iterations: 649 
number of iterations: 649 
number of iterations: 645 
   23040    94.875441      436          436 4.0727311e-13          0.1    9.5814034    3.8832116     30.76555 
number of iterations: 645 
number of iterations: 645 
number of iterations: 644 
number of iterations: 644 
   23400    95.623418      464          464 4.3392988e-13          0.1    10.224739    4.1441846     29.87643 
number of iterations: 642 
number of iterations: 639 
number of iterations: 639 
   23760    96.143936      489          489 4.5506131e-13          0.1    10.734725    4.3510638    29.171616 
number of iterations: 639 
number of iterations: 638 
number of iterations: 638 
number of iterations: 637 
   24120    96.775406      524          524 4.8484589e-13          0.1    11.453548    4.6426586    28.178199 
number of iterations: 639 
number of iterations: 641 
number of iterations: 641 
   24480    97.390808      538          538 5.0845681e-13          0.1    12.023376    4.8738127    27.390705 
number of iterations: 642 
number of iterations: 642 
number of iterations: 642 
number of iterations: 642 
   24840    98.087425      559          559 5.4173621e-13          0.1    12.826544    5.1996224    26.280757 
number of iterations: 643 
number of iterations: 643 
number of iterations: 642 
number of iterations: 641 
   25200    98.826144      597          597 5.7719379e-13          0.1    13.682281    5.5467571     25.09818 
number of iterations: 640 
number of iterations: 640 
number of iterations: 639 
   25560    99.339997      632          632 6.0530183e-13          0.1    14.360641    5.8219382    24.160741 
number of iterations: 638 
number of iterations: 637 
number of iterations: 636 
number of iterations: 634 
   25920    100.04198      669          669 6.4491988e-13          0.1    15.316785    6.2098037    22.839448 
number of iterations: 631 
number of iterations: 631 
number of iterations: 629 
   26280    100.71615      705          705  6.76326e-13          0.1    16.074743    6.5172736    21.792043 
number of iterations: 626 
number of iterations: 626 
number of iterations: 627 
number of iterations: 624 
   26640    101.40443      751          751 7.2059267e-13          0.1    17.143081    6.9506494    20.315758 
number of iterations: 621 
number of iterations: 620 
number of iterations: 620 
number of iterations: 619 
   27000    102.14568      810          810 7.6775664e-13          0.1    18.281345    7.4123904    18.742877 
number of iterations: 616 
number of iterations: 616 
number of iterations: 614 
   27360    102.73967      845          845 8.0514458e-13          0.1    19.183672    7.7784232     17.49604 
number of iterations: 613 
number of iterations: 613 
number of iterations: 612 
number of iterations: 612 
   27720    103.48385      903          903 8.5784253e-13          0.1    20.455497    8.2943436    15.738664 
number of iterations: 611 
number of iterations: 609 
number of iterations: 607 
   28080     104.0859      955          955 8.9961737e-13          0.1    21.463701    8.7033252    14.345577 
number of iterations: 606 
number of iterations: 605 
number of iterations: 603 
number of iterations: 603 
   28440    104.97929     1023         1023 9.5849859e-13          0.1    22.884746     9.279779    12.382082 
number of iterations: 603 
number of iterations: 603 
number of iterations: 612 
number of iterations: 637 
   28800    105.80456     1086         1086 1.0212335e-12          0.1    24.398801    9.8939615    10.290129 
number of iterations: 664 
number of iterations: 693 
number of iterations: 724 
   29160    106.48563     1128         1128 1.0709648e-12          0.1    25.599025    10.380836    8.6318307 
number of iterations: 759 
number of iterations: 796 
number of iterations: 837 
number of iterations: 884 
   29520    107.42939     1197         1197 1.1410603e-12          0.1    27.290727     11.06708    6.2945409 
number of iterations: 938 
number of iterations: 1016 
number of iterations: 1135 
   29880    108.35508     1253         1253 1.1966261e-12          0.1    28.631775    11.611078    4.4417833 
number of iterations: 1251 
number of iterations: 1373 
number of iterations: 1508 
number of iterations: 1667 
   30240    109.58803     1326         1326 1.2749433e-12          0.1    30.521942    12.377826    1.8304695 
number of iterations: 1869 
number of iterations: 2340 
number of iterations: 3884 
Fix halt 10 condition met on step 30500 with value 1e-20 (../fix_halt.cpp:203)
Loop time of 111.095 on 12 procs for 30500 steps with 1390 atoms

Performance: 237202402.550 tau/day, 274.540 timesteps/s
56.7% CPU use with 12 MPI tasks x no OpenMP threads

MPI task timing breakdown:
Section |  min time  |  avg time  |  max time  |%varavg| %total
---------------------------------------------------------------
Pair    | 0.025482   | 0.055511   | 0.12177    |  11.6 |  0.05
Neigh   | 0.0066001  | 0.019053   | 0.046902   |   8.4 |  0.02
Comm    | 0.091452   | 0.3226     | 0.62351    |  29.0 |  0.29
Output  | 1.8828     | 1.8832     | 1.8861     |   0.1 |  1.70
Modify  | 107.84     | 108.13     | 108.4      |   1.6 | 97.34
Other   |            | 0.6798     |            |       |  0.61

Nlocal:    115.833 ave 364 max 0 min
Histogram: 5 0 0 2 3 1 0 0 0 1
Nghost:    25.5 ave 49 max 0 min
Histogram: 2 0 0 2 2 1 0 4 0 1
Neighs:    314.583 ave 1152 max 0 min
Histogram: 5 0 1 4 1 0 0 0 0 1

Total # of neighbors = 3775
Ave neighs/atom = 2.71583
Neighbor list builds = 599
Dangerous builds = 0
shell cd ..
clear
next sucRatio
jump SELF
# NUFEB simulation

atom_style	bio
atom_modify	map array sort 1000 5.0e-7
boundary	ff ff ff
newton		off
processors  * * 1

comm_modify	vel yes
read_data_bio sucrose_atom.in
  orthogonal box = (0 0 0) to (0.0001 0.0001 1e-05)
  4 by 3 by 1 MPI processor grid
  reading atoms ...
  10 atoms
  4 nutrients

##############Define initial particle distribution##############

lattice sc 1e-6 origin 0 0 0
Lattice spacing in x,y,z = 100 100 100
region reg block 0 1000 0 1000 0 100

group CYANO type 1
10 atoms in group CYANO

neighbor	5e-7 bin
neigh_modify	delay 0 one 5000

##############Define DEM Variables&Commands##############

pair_style  gran/hooke/history 1.e-4 NULL 1.e-5 NULL 0.0 1
pair_coeff  * *

timestep 10

fix 1 all nve/limit 1e-8
fix fv all viscous 1e-5

fix zw all wall/gran hooke/history 2000 NULL 500.0 NULL 1.5 0 zplane  0.0  1e-05

variable kanc equal 50

#fix zwa all walladh v_kanc zplane  0.0  1e-04

variable ke equal 5e+10
#fix j1 all epsadh 1 v_ke 1

##############Define IBm Variables##############

#variables used in fix eps_extract
variable EPSdens equal 30
variable EPSratio equal 1.3

#variables used in fix division
variable divDia equal 1.94e-6

#variable used for sucrose export
variable sucRatio index 0.0 0.1 0.2 0.3 0.4 0.5 0.6 0.7 0.8 0.9 1.0

#variables used in fix kinetics
variable diffT equal 1e-4
variable tol equal 1e-11
variable etaHET equal 0.6
variable layer equal -1

#variables used in fix death
#variable deadDia equal 9e-7


##############Define IBm Commands##############

fix k1 all kinetics 100 50 50 5 v_diffT v_layer niter 1000000
fix kgm all kinetics/growth/monod sucexp ${sucRatio}#gflag 1
fix kgm all kinetics/growth/monod sucexp 0.3
fix g1 all kinetics/diffusion v_tol
fix d1 all divide 100 v_EPSdens v_divDia 64564
#fix d2 all death 1 v_deadDia demflag 0


##############Define IBm Computes##############

compute myNtypes all ntypes
compute myMass all biomass
compute myCon all avg_con


##############Simulation exit condition##############
variable co2 equal c_myCon[4]
fix 10 all halt 1 v_co2 <= 1e-19

variable light equal c_myCon[1]
fix 11 all halt 1 v_light <= 1e-19


##############Simulation Output##############

dump		id all custom 360 output.lammmps id type diameter x y z
dump		du1 all vtk 360 atom_*.vtu id type diameter x y z
dump		du2 all grid 360 grid_%_*.vti con
dump        du3 all bio 360 ntypes biomass avg_con
thermo_style    custom step cpu atoms c_myNtypes[*] c_myMass[*] c_myCon[*]
thermo		360
thermo_modify	lost ignore

shell mkdir Sucrose_${sucRatio}
shell mkdir Sucrose_0.3
shell cd Sucrose_${sucRatio}
shell cd Sucrose_0.3
run 35000
Model is defined as a closed system. 
Neighbor list info ...
  update every 1 steps, delay 0 steps, check yes
  max neighbors/atom: 5000, page size: 100000
  master list distance cutoff = 2.43e-06
  ghost atom cutoff = 2.43e-06
  binsize = 1.215e-06, bins = 83 83 9
  1 neighbor lists, perpetual/occasional/extra = 1 0 0
  (1) pair gran/hooke/history, perpetual
      attributes: half, newton off, size, history
      pair build: half/size/bin/newtoff
      stencil: half/bin/3d/newtoff
      bin: standard
Per MPI rank memory allocation (min/avg/max) = 11 | 11.75 | 12.13 Mbytes
Step CPU Atoms c_myNtypes[1] c_myMass[1] c_myCon[1] c_myCon[2] c_myCon[3] c_myCon[4] 
       0            0       10           10 1.0633829e-14          0.1        0.009        1e-20           44 
number of iterations: 329743 
number of iterations: 6123 
number of iterations: 4536 
     360    46.090077       11           11 1.1140717e-14          0.1  0.024265136 0.0076852797    43.978835 
number of iterations: 3305 
number of iterations: 2820 
number of iterations: 2588 
number of iterations: 2328 
     720      48.1293       15           15 1.1854352e-14          0.1  0.045757143  0.018389176    43.949045 
number of iterations: 2122 
number of iterations: 1957 
number of iterations: 1834 
    1080    49.350026       16           16 1.241942e-14          0.1  0.062775233  0.026864167    43.925471 
number of iterations: 1746 
number of iterations: 1670 
number of iterations: 1603 
number of iterations: 1544 
    1440    50.711972       16           16 1.3214964e-14          0.1  0.086735384  0.038795635    43.892286 
number of iterations: 1490 
number of iterations: 1443 
number of iterations: 1400 
number of iterations: 1364 
    1800    51.938633       16           16 1.4061467e-14          0.1   0.11223105  0.051491261    43.856978 
number of iterations: 1332 
number of iterations: 1303 
number of iterations: 1277 
    2160    52.746322       16           16 1.4731743e-14          0.1   0.13241935  0.061543829    43.829023 
number of iterations: 1252 
number of iterations: 1229 
number of iterations: 1208 
number of iterations: 1189 
    2520    53.796347       17           17 1.5675406e-14          0.1   0.16084226  0.075696502    43.789669 
number of iterations: 1171 
number of iterations: 1155 
number of iterations: 1140 
    2880    54.560198       18           18 1.6422614e-14          0.1   0.18334788  0.086902724    43.758511 
number of iterations: 1126 
number of iterations: 1112 
number of iterations: 1099 
number of iterations: 1087 
    3240    55.526638       18           18 1.7474588e-14          0.1   0.21503296   0.10267959    43.714648 
number of iterations: 1075 
number of iterations: 1064 
number of iterations: 1054 
number of iterations: 1044 
    3600    56.480162       18           18 1.8593947e-14          0.1    0.2487481   0.11946707    43.667978 
number of iterations: 1034 
number of iterations: 1025 
number of iterations: 1016 
    3960    57.180742       18           18 1.9480275e-14          0.1    0.2754446   0.13275967    43.631026 
number of iterations: 1008 
number of iterations: 1000 
number of iterations: 992 
number of iterations: 985 
    4320    58.118587       18           18 2.0728112e-14          0.1   0.31303022   0.15147397    43.579004 
number of iterations: 978 
number of iterations: 964 
number of iterations: 957 
    4680    58.805907       19           19 2.1716171e-14          0.1   0.34279182   0.16629233    43.537815 
number of iterations: 918 
number of iterations: 911 
number of iterations: 905 
number of iterations: 900 
    5040    59.600912       23           23 2.3107231e-14          0.1   0.38469149   0.18715443    43.479838 
number of iterations: 895 
number of iterations: 892 
number of iterations: 886 
number of iterations: 882 
    5400    60.402598       29           29 2.4587398e-14          0.1   0.42927691   0.20935314    43.418135 
number of iterations: 877 
number of iterations: 869 
number of iterations: 865 
    5760    61.029804       31           31 2.5759419e-14          0.1   0.46458077   0.22693048    43.369275 
number of iterations: 860 
number of iterations: 856 
number of iterations: 852 
number of iterations: 848 
    6120    61.823185       31           31 2.7409475e-14          0.1   0.51428439   0.25167713    43.300489 
number of iterations: 844 
number of iterations: 840 
number of iterations: 836 
    6480    62.349296       32           32 2.8716017e-14          0.1   0.55364058   0.27127195    43.246027 
number of iterations: 833 
number of iterations: 829 
number of iterations: 826 
number of iterations: 823 
    6840    63.204632       32           32 3.0555463e-14          0.1   0.60904921   0.29885896    43.169354 
number of iterations: 819 
number of iterations: 816 
number of iterations: 813 
number of iterations: 810 
    7200    64.095024       34           34 3.2512737e-14          0.1    0.6680081   0.32821315    43.087778 
number of iterations: 807 
number of iterations: 805 
number of iterations: 802 
    7560    64.685758       36           36 3.4062539e-14          0.1   0.71469428   0.35145655    43.023188 
number of iterations: 799 
number of iterations: 797 
number of iterations: 794 
number of iterations: 792 
    7920    65.469913       36           36 3.6244463e-14          0.1   0.78042273   0.38418029    42.932257 
number of iterations: 789 
number of iterations: 787 
number of iterations: 785 
    8280    66.236027       36           36 3.7972148e-14          0.1   0.83246785   0.41009153    42.860258 
number of iterations: 782 
number of iterations: 780 
number of iterations: 778 
number of iterations: 776 
    8640    67.011344       36           36 4.0404508e-14          0.1   0.90574097   0.44657126    42.758898 
number of iterations: 777 
number of iterations: 775 
number of iterations: 773 
number of iterations: 771 
    9000    67.740025       40           40 4.2992676e-14          0.1    0.9837069   0.48538759    42.651052 
number of iterations: 778 
number of iterations: 781 
number of iterations: 782 
    9360    68.381639       49           49 4.5042032e-14          0.1    1.0454416     0.516123    42.565663 
number of iterations: 780 
number of iterations: 779 
number of iterations: 777 
number of iterations: 775 
    9720    69.186102       52           52 4.7927263e-14          0.1    1.1323562   0.55939457    42.445453 
number of iterations: 774 
number of iterations: 772 
number of iterations: 770 
   10080    69.862836       56           56 5.0211839e-14          0.1    1.2011763   0.59365766     42.35027 
number of iterations: 768 
number of iterations: 768 
number of iterations: 763 
number of iterations: 762 
   10440    70.650678       61           61 5.3428229e-14          0.1    1.2980661   0.64189573    42.216265 
number of iterations: 760 
number of iterations: 759 
number of iterations: 758 
number of iterations: 757 
   10800    71.433857       64           64 5.685065e-14          0.1     1.401163   0.69322379    42.073681 
number of iterations: 755 
number of iterations: 754 
number of iterations: 753 
   11160     72.17526       66           66 5.9560581e-14          0.1     1.482797   0.73386624    41.960785 
number of iterations: 752 
number of iterations: 754 
number of iterations: 753 
number of iterations: 752 
   11520     72.93068       67           67 6.3375819e-14          0.1     1.597728   0.79108573    41.801847 
number of iterations: 751 
number of iterations: 750 
number of iterations: 749 
   11880    73.594248       70           70 6.6396788e-14          0.1    1.6887327   0.83639313       41.676 
number of iterations: 748 
number of iterations: 747 
number of iterations: 746 
number of iterations: 745 
   12240    74.231802       72           72 7.0649929e-14          0.1    1.8168549   0.90018009    41.498831 
number of iterations: 739 
number of iterations: 737 
number of iterations: 730 
number of iterations: 730 
   12600    75.094888       74           74 7.517551e-14          0.1    1.9531849   0.96805312    41.310314 
number of iterations: 725 
number of iterations: 724 
number of iterations: 722 
   12960    75.830748       76           76 7.8758942e-14          0.1    2.0611338    1.0217962    41.161045 
number of iterations: 722 
number of iterations: 721 
number of iterations: 720 
number of iterations: 719 
   13320    76.586489       78           78 8.3803957e-14          0.1    2.2131116    1.0974596    40.950897 
number of iterations: 716 
number of iterations: 716 
number of iterations: 715 
   13680    77.237121       87           87 8.7798686e-14          0.1    2.3334517    1.1573715    40.784498 
number of iterations: 713 
number of iterations: 712 
number of iterations: 713 
number of iterations: 710 
[...]
10 atoms in group CYANO

neighbor	5e-7 bin
neigh_modify	delay 0 one 5000

##############Define DEM Variables&Commands##############

pair_style  gran/hooke/history 1.e-4 NULL 1.e-5 NULL 0.0 1
pair_coeff  * *

timestep 10

fix 1 all nve/limit 1e-8
fix fv all viscous 1e-5

fix zw all wall/gran hooke/history 2000 NULL 500.0 NULL 1.5 0 zplane  0.0  1e-05

variable kanc equal 50

#fix zwa all walladh v_kanc zplane  0.0  1e-04

variable ke equal 5e+10
#fix j1 all epsadh 1 v_ke 1

##############Define IBm Variables##############

#variables used in fix eps_extract
variable EPSdens equal 30
variable EPSratio equal 1.3

#variables used in fix division
variable divDia equal 1.94e-6

#variable used for sucrose export
variable sucRatio index 0.0 0.1 0.2 0.3 0.4 0.5 0.6 0.7 0.8 0.9 1.0

#variables used in fix kinetics
variable diffT equal 1e-4
variable tol equal 1e-11
variable etaHET equal 0.6
variable layer equal -1

#variables used in fix death
#variable deadDia equal 9e-7


##############Define IBm Commands##############

fix k1 all kinetics 100 50 50 5 v_diffT v_layer niter 1000000
fix kgm all kinetics/growth/monod sucexp ${sucRatio}#gflag 1
fix kgm all kinetics/growth/monod sucexp 1.0
fix g1 all kinetics/diffusion v_tol
fix d1 all divide 100 v_EPSdens v_divDia 64564
#fix d2 all death 1 v_deadDia demflag 0


##############Define IBm Computes##############

compute myNtypes all ntypes
compute myMass all biomass
compute myCon all avg_con


##############Simulation exit condition##############
variable co2 equal c_myCon[4]
fix 10 all halt 1 v_co2 <= 1e-19

variable light equal c_myCon[1]
fix 11 all halt 1 v_light <= 1e-19


##############Simulation Output##############

dump		id all custom 360 output.lammmps id type diameter x y z
dump		du1 all vtk 360 atom_*.vtu id type diameter x y z
dump		du2 all grid 360 grid_%_*.vti con
dump        du3 all bio 360 ntypes biomass avg_con
thermo_style    custom step cpu atoms c_myNtypes[*] c_myMass[*] c_myCon[*]
thermo		360
thermo_modify	lost ignore

shell mkdir Sucrose_${sucRatio}
shell mkdir Sucrose_1.0
shell cd Sucrose_${sucRatio}
shell cd Sucrose_1.0
run 35000
Model is defined as a closed system. 
Neighbor list info ...
  update every 1 steps, delay 0 steps, check yes
  max neighbors/atom: 5000, page size: 100000
  master list distance cutoff = 2.43e-06
  ghost atom cutoff = 2.43e-06
  binsize = 1.215e-06, bins = 83 83 9
  1 neighbor lists, perpetual/occasional/extra = 1 0 0
  (1) pair gran/hooke/history, perpetual
      attributes: half, newton off, size, history
      pair build: half/size/bin/newtoff
      stencil: half/bin/3d/newtoff
      bin: standard
Per MPI rank memory allocation (min/avg/max) = 11 | 11.75 | 12.13 Mbytes
Step CPU Atoms c_myNtypes[1] c_myMass[1] c_myCon[1] c_myCon[2] c_myCon[3] c_myCon[4] 
       0            0       10           10 1.0633829e-14          0.1        0.009        1e-20           44 
number of iterations: 329743 
number of iterations: 6155 
number of iterations: 4526 
     360    46.496154       11           11 1.1064224e-14          0.1  0.043613428  0.025558922     43.95207 
number of iterations: 3296 
number of iterations: 2811 
number of iterations: 2577 
number of iterations: 2317 
     720     48.82548       15           15 1.1665304e-14          0.1  0.091954288  0.060870293    43.885136 
number of iterations: 2109 
number of iterations: 1945 
number of iterations: 1821 
    1080    50.290693       16           16 1.2137447e-14          0.1   0.12992678   0.08860548    43.832567 
number of iterations: 1725 
number of iterations: 1644 
number of iterations: 1577 
number of iterations: 1520 
    1440    51.848387       16           16 1.2796831e-14          0.1   0.18296011   0.12733899    43.759157 
number of iterations: 1471 
number of iterations: 1426 
number of iterations: 1387 
number of iterations: 1351 
    1800    53.268335       16           16 1.3492037e-14          0.1   0.23887646    0.1681764    43.681763 
number of iterations: 1319 
number of iterations: 1290 
number of iterations: 1263 
    2160    54.275792       16           16 1.4038116e-14          0.1   0.28279935    0.2002538    43.620973 
number of iterations: 1238 
number of iterations: 1215 
number of iterations: 1194 
number of iterations: 1174 
    2520    55.497991       16           16 1.4800756e-14          0.1   0.34414218   0.24505222    43.536078 
number of iterations: 1157 
number of iterations: 1140 
number of iterations: 1124 
    2880    56.392471       16           16 1.5399804e-14          0.1    0.3923274   0.28024105    43.469396 
number of iterations: 1110 
number of iterations: 1096 
number of iterations: 1082 
number of iterations: 1070 
    3240    57.490945       17           17 1.623642e-14          0.1   0.45962139   0.32938444    43.376278 
number of iterations: 1059 
number of iterations: 1047 
number of iterations: 1037 
number of iterations: 1026 
    3600    58.562987       18           18 1.7118486e-14          0.1   0.53057102   0.38119738    43.278107 
number of iterations: 1017 
number of iterations: 1007 
number of iterations: 998 
    3960    59.348343       18           18 1.7811343e-14          0.1   0.58630216    0.4218961    43.200997 
number of iterations: 990 
number of iterations: 982 
number of iterations: 974 
number of iterations: 966 
    4320    60.402568       18           18 1.8778968e-14          0.1   0.66413575   0.47873493    43.093311 
number of iterations: 959 
number of iterations: 952 
number of iterations: 945 
    4680    61.357802       18           18 1.9539032e-14          0.1    0.7252741   0.52338147    43.008728 
number of iterations: 939 
number of iterations: 932 
number of iterations: 926 
number of iterations: 921 
    5040    62.452816       18           18 2.0600517e-14          0.1   0.81065914   0.58573374    42.890605 
number of iterations: 915 
number of iterations: 902 
number of iterations: 897 
number of iterations: 892 
    5400    63.555858       19           19 2.1719668e-14          0.1   0.90068523   0.65147378    42.766066 
number of iterations: 852 
number of iterations: 847 
number of iterations: 843 
    5760    64.315679       22           22 2.2598754e-14          0.1   0.97139841   0.70311147    42.668254 
number of iterations: 838 
number of iterations: 834 
number of iterations: 830 
number of iterations: 828 
    6120    65.250196       27           27 2.3826462e-14          0.1    1.0701556   0.77522725    42.531662 
number of iterations: 823 
number of iterations: 819 
number of iterations: 816 
    6480     65.99649       29           29 2.4790819e-14          0.1    1.1477291   0.83187331    42.424371 
number of iterations: 809 
number of iterations: 805 
number of iterations: 801 
number of iterations: 798 
    6840    66.906762       31           31 2.6137614e-14          0.1    1.2560662   0.91098354    42.274539 
number of iterations: 794 
number of iterations: 791 
number of iterations: 788 
number of iterations: 785 
    7200    67.776552       31           31 2.7557576e-14          0.1    1.3702894   0.99439158    42.116571 
number of iterations: 782 
number of iterations: 779 
number of iterations: 776 
    7560    68.517402       32           32 2.8672946e-14          0.1    1.4600109     1.059908     41.99249 
number of iterations: 773 
number of iterations: 770 
number of iterations: 767 
number of iterations: 765 
    7920    69.323503       32           32 3.0230644e-14          0.1    1.5853138    1.1514066    41.819208 
number of iterations: 762 
number of iterations: 760 
number of iterations: 757 
    8280    69.959319       34           34 3.1454204e-14          0.1    1.6837394    1.2232782    41.683099 
number of iterations: 755 
number of iterations: 752 
number of iterations: 750 
number of iterations: 748 
    8640    70.787226       36           36 3.3162997e-14          0.1    1.8212001    1.3236524    41.493017 
number of iterations: 746 
number of iterations: 743 
number of iterations: 741 
number of iterations: 739 
    9000    71.489249       36           36 3.4964623e-14          0.1    1.9661297    1.4294796    41.292614 
number of iterations: 737 
number of iterations: 735 
number of iterations: 733 
    9360    72.135324       36           36 3.6379787e-14          0.1    2.0799712    1.5126062    41.135204 
number of iterations: 731 
number of iterations: 730 
number of iterations: 728 
number of iterations: 726 
    9720    72.872926       36           36 3.8356169e-14          0.1    2.2389598    1.6286987    40.915376 
number of iterations: 724 
number of iterations: 722 
number of iterations: 721 
   10080    73.407923       36           36 3.9908603e-14          0.1    2.3638445    1.7198886    40.742706 
number of iterations: 719 
number of iterations: 721 
number of iterations: 720 
number of iterations: 718 
   10440    74.099403       38           38 4.2076692e-14          0.1    2.5382547     1.847242    40.501569 
number of iterations: 717 
number of iterations: 719 
number of iterations: 723 
number of iterations: 726 
   10800    74.893264       46           46 4.4362566e-14          0.1    2.7221415    1.9815147    40.247336 
number of iterations: 726 
number of iterations: 724 
number of iterations: 723 
   11160    75.532546       49           49 4.6158104e-14          0.1    2.8665812    2.0869848    40.047648 
number of iterations: 722 
number of iterations: 720 
number of iterations: 719 
number of iterations: 718 
   11520    76.248978       52           52 4.8665707e-14          0.1    3.0683041    2.2342822    39.768766 
number of iterations: 714 
number of iterations: 713 
number of iterations: 712 
   11880    76.897393       57           57 5.063541e-14          0.1    3.2267567    2.3499837    39.549704 
number of iterations: 711 
number of iterations: 711 
number of iterations: 712 
number of iterations: 711 
   12240    77.654849       61           61 5.3386248e-14          0.1    3.4480477    2.5115695     39.24377 
number of iterations: 710 
number of iterations: 708 
number of iterations: 707 
number of iterations: 707 
   12600     78.38988       64           64 5.6286529e-14          0.1    3.6813609    2.6819337    38.921223 
number of iterations: 706 
number of iterations: 705 
number of iterations: 704 
   12960    78.985061       65           65 5.8564679e-14          0.1    3.8646273    2.8157536     38.66787 
number of iterations: 703 
number of iterations: 702 
number of iterations: 701 
number of iterations: 701 
   13320    79.735329       66           66 6.1746285e-14          0.1    4.1205734    3.0026434    38.314047 
number of iterations: 700 
number of iterations: 700 
number of iterations: 699 
   13680    80.244948       67           67 6.4245414e-14          0.1    4.3216186    3.1494442    38.036125 
number of iterations: 698 
number of iterations: 697 
number of iterations: 696 
number of iterations: 696 
   14040    81.042558       71           71 6.7735634e-14          0.1    4.6023923    3.3544624    37.647994 
number of iterations: 695 
number of iterations: 694 
number of iterations: 693 
number of iterations: 686 
   14400    81.842521       73           73 7.1415464e-14          0.1    4.8984183    3.5706184    37.238784 
number of iterations: 686 
number of iterations: 685 
number of iterations: 684 
   14760    82.368754       73           73 7.4305944e-14          0.1    5.1309481    3.7404081    36.917352 
number of iterations: 686 
number of iterations: 686 
number of iterations: 685 
number of iterations: 682 
   15120    83.153417       76           76 7.8342715e-14          0.1    5.4556967    3.9775328    36.468452 
number of iterations: 681 
number of iterations: 680 
number of iterations: 680 
   15480    83.681315       76           76 8.151357e-14          0.1    5.7107829    4.1637922    36.115851 
number of iterations: 679 
number of iterations: 675 
number of iterations: 674 
number of iterations: 673 
   15840    84.438595       82           82 8.5941905e-14          0.1    6.0670322     4.423918    35.623421 
number of iterations: 673 
number of iterations: 673 
number of iterations: 672 
number of iterations: 675 
   16200    85.157024       95           95 9.0610814e-14          0.1    6.4426419    4.6981769    35.104237 
number of iterations: 681 
number of iterations: 675 
number of iterations: 670 
   16560    85.702607      103          103 9.427821e-14          0.1    6.7376868    4.9136067     34.69642 
number of iterations: 671 
number of iterations: 670 
number of iterations: 668 
number of iterations: 667 
   16920    86.479459      111          111     9.94e-14          0.1    7.1497393    5.2144707    34.126879 
number of iterations: 667 
number of iterations: 667 
number of iterations: 666 
   17280    87.093246      115          115 1.0342313e-13          0.1    7.4734032    5.4507972    33.679516 
number of iterations: 666 
number of iterations: 665 
number of iterations: 664 
number of iterations: 664 
   17640    87.759252      120          120 1.0904173e-13          0.1    7.9254235    5.7808446    33.054751 
number of iterations: 662 
number of iterations: 662 
number of iterations: 660 
number of iterations: 657 
   18000    88.568937      127          127 1.1496556e-13          0.1    8.4019966    6.1288211    32.396062 
number of iterations: 657 
number of iterations: 656 
number of iterations: 656 
   18360    89.157568      132          132 1.196187e-13          0.1    8.7763379    6.4021531    31.878681 
number of iterations: 655 
number of iterations: 655 
number of iterations: 655 
number of iterations: 655 
   18720    89.850925      136          136 1.2611714e-13          0.1    9.2991333    6.7838818     31.15613 
number of iterations: 655 
number of iterations: 653 
number of iterations: 653 
   19080    90.462609      140          140 1.3122162e-13          0.1    9.7097872    7.0837274    30.588576 
number of iterations: 653 
number of iterations: 652 
number of iterations: 652 
number of iterations: 652 
   19440    91.137401      142          142 1.3835041e-13          0.1    10.283295    7.5024838    29.795959 
number of iterations: 652 
number of iterations: 649 
number of iterations: 649 
number of iterations: 649 
   19800    91.924532      147          147 1.4586647e-13          0.1    10.887961    7.9439901    28.960292 
number of iterations: 648 
number of iterations: 648 
number of iterations: 647 
   20160    92.588112      153          153 1.5177029e-13          0.1    11.362922    8.2907895    28.303894 
number of iterations: 647 
number of iterations: 646 
number of iterations: 646 
number of iterations: 646 
   20520    93.302312      163          163 1.600154e-13          0.1    12.026234    8.7751191    27.387206 
number of iterations: 645 
number of iterations: 644 
number of iterations: 641 
   20880    93.875856      167          167 1.6649188e-13          0.1    12.547263    9.1555564    26.667163 
number of iterations: 642 
number of iterations: 643 
number of iterations: 640 
number of iterations: 641 
   21240    94.688132      178          178 1.7553676e-13          0.1    13.274918    9.6868653    25.661583 
number of iterations: 637 
number of iterations: 637 
number of iterations: 636 
number of iterations: 635 
   21600    95.380776      193          193 1.8507302e-13          0.1    14.042104    10.247039    24.601388 
number of iterations: 635 
number of iterations: 631 
number of iterations: 632 
   21960     95.97358      204          204 1.9256368e-13          0.1    14.644728    10.687052     23.76862 
number of iterations: 630 
number of iterations: 630 
number of iterations: 631 
number of iterations: 630 
   22320    96.777501      221          221 2.0302493e-13          0.1    15.486329    11.301562    22.605622 
number of iterations: 630 
number of iterations: 631 
number of iterations: 630 
   22680    97.346969      232          232 2.1124217e-13          0.1    16.147394    11.784252    21.692118 
number of iterations: 630 
number of iterations: 630 
number of iterations: 627 
number of iterations: 625 
   23040    98.125825      246          246 2.2271816e-13          0.1     17.07062    12.458362    20.416362 
number of iterations: 625 
number of iterations: 625 
number of iterations: 622 
number of iterations: 622 
   23400    98.988641      256          256 2.3481758e-13          0.1    18.043998    13.169093    19.071324 
number of iterations: 622 
number of iterations: 621 
number of iterations: 621 
   23760    99.533434      262          262 2.4432159e-13          0.1    18.808583    13.727368     18.01482 
number of iterations: 620 
number of iterations: 620 
number of iterations: 619 
number of iterations: 618 
   24120    100.47952      271          271 2.5759463e-13          0.1    19.876393    14.507042    16.539347 
number of iterations: 617 
number of iterations: 615 
number of iterations: 615 
   24480    101.13575      279          279 2.680205e-13          0.1    20.715153     15.11947    15.380391 
number of iterations: 615 
number of iterations: 615 
number of iterations: 616 
number of iterations: 613 
   24840    101.91225      294          294 2.8258098e-13          0.1    21.886548    15.974772    13.761844 
number of iterations: 613 
number of iterations: 611 
number of iterations: 607 
number of iterations: 608 
   25200    102.69932      310          310 2.9793246e-13          0.1    23.121578    16.876537    12.055405 
number of iterations: 608 
number of iterations: 608 
number of iterations: 606 
   25560    103.40311      315          315 3.0999091e-13          0.1    24.091684    17.584867    10.715038 
number of iterations: 607 
number of iterations: 613 
number of iterations: 636 
number of iterations: 660 
   25920    104.26835      331          331 3.268314e-13          0.1    25.446508    18.574101    8.8431629 
number of iterations: 687 
number of iterations: 718 
number of iterations: 750 
   26280    104.92926      348          348 3.4005943e-13          0.1    26.510711    19.351135    7.3728598 
number of iterations: 785 
number of iterations: 823 
number of iterations: 865 
number of iterations: 913 
   26640    105.95691      374          374 3.5853325e-13          0.1     27.99693    20.436311     5.319539 
number of iterations: 967 
number of iterations: 1058 
number of iterations: 1174 
number of iterations: 1290 
   27000    107.06792      398          398 3.7801039e-13          0.1    29.563871    21.580427    3.1547667 
number of iterations: 1413 
number of iterations: 1551 
number of iterations: 1715 
   27360    108.20982      420          420 3.9330891e-13          0.1    30.794652    22.479096    1.4544459 
number of iterations: 1954 
number of iterations: 2495 
number of iterations: 4969 
Fix halt 10 condition met on step 27600 with value 1e-20 (../fix_halt.cpp:203)
Loop time of 109.943 on 12 procs for 27600 steps with 442 atoms

Performance: 216897023.795 tau/day, 251.038 timesteps/s
55.3% CPU use with 12 MPI tasks x no OpenMP threads

MPI task timing breakdown:
Section |  min time  |  avg time  |  max time  |%varavg| %total
---------------------------------------------------------------
Pair    | 0.022968   | 0.0321     | 0.047105   |   4.1 |  0.03
Neigh   | 0.004382   | 0.0070604  | 0.012021   |   2.7 |  0.01
Comm    | 0.072794   | 0.25039    | 0.5542     |  30.1 |  0.23
Output  | 1.8497     | 1.8502     | 1.853      |   0.1 |  1.68
Modify  | 106.81     | 107.11     | 107.3      |   1.4 | 97.42
Other   |            | 0.6928     |            |       |  0.63

Nlocal:    36.8333 ave 111 max 0 min
Histogram: 5 0 0 1 3 2 0 0 0 1
Nghost:    6.91667 ave 12 max 0 min
Histogram: 2 1 0 1 1 1 0 0 3 3
Neighs:    55.1667 ave 178 max 0 min
Histogram: 5 0 1 1 2 2 0 0 0 1

Total # of neighbors = 662
Ave neighs/atom = 1.49774
Neighbor list builds = 403
Dangerous builds = 0
shell cd ..
clear
next sucRatio
jump SELF
Total wall time: 0:20:06
